+ 0 2 3 cbr 210 ------- 1 2.0 3.0 0 0
- 0 2 3 cbr 210 ------- 1 2.0 3.0 0 0
+ 0 0 2 tcp 40 ------- 2 0.0 4.0 0 1
- 0 0 2 tcp 40 ------- 2 0.0 4.0 0 1
+ 0.00084 2 3 cbr 210 ------- 1 2.0 3.0 1 2
- 0.00084 2 3 cbr 210 ------- 1 2.0 3.0 1 2
+ 0.00168 2 3 cbr 210 ------- 1 2.0 3.0 2 3
- 0.00168 2 3 cbr 210 ------- 1 2.0 3.0 2 3
+ 0.00252 2 3 cbr 210 ------- 1 2.0 3.0 3 4
- 0.00252 2 3 cbr 210 ------- 1 2.0 3.0 3 4
+ 0.00336 2 3 cbr 210 ------- 1 2.0 3.0 4 5
- 0.00336 2 3 cbr 210 ------- 1 2.0 3.0 4 5
+ 0.0042 2 3 cbr 210 ------- 1 2.0 3.0 5 6
- 0.0042 2 3 cbr 210 ------- 1 2.0 3.0 5 6
+ 0.00504 2 3 cbr 210 ------- 1 2.0 3.0 6 7
- 0.00504 2 3 cbr 210 ------- 1 2.0 3.0 6 7
+ 0.00588 2 3 cbr 210 ------- 1 2.0 3.0 7 8
- 0.00588 2 3 cbr 210 ------- 1 2.0 3.0 7 8
+ 0.00672 2 3 cbr 210 ------- 1 2.0 3.0 8 9
- 0.00672 2 3 cbr 210 ------- 1 2.0 3.0 8 9
+ 0.00756 2 3 cbr 210 ------- 1 2.0 3.0 9 10
- 0.00756 2 3 cbr 210 ------- 1 2.0 3.0 9 10
+ 0.0084 2 3 cbr 210 ------- 1 2.0 3.0 10 11
- 0.0084 2 3 cbr 210 ------- 1 2.0 3.0 10 11
+ 0.00924 2 3 cbr 210 ------- 1 2.0 3.0 11 12
- 0.00924 2 3 cbr 210 ------- 1 2.0 3.0 11 12
+ 0.01008 2 3 cbr 210 ------- 1 2.0 3.0 12 13
- 0.01008 2 3 cbr 210 ------- 1 2.0 3.0 12 13
+ 0.01092 2 3 cbr 210 ------- 1 2.0 3.0 13 14
- 0.01092 2 3 cbr 210 ------- 1 2.0 3.0 13 14
+ 0.01176 2 3 cbr 210 ------- 1 2.0 3.0 14 15
- 0.01176 2 3 cbr 210 ------- 1 2.0 3.0 14 15
+ 0.0126 2 3 cbr 210 ------- 1 2.0 3.0 15 16
- 0.0126 2 3 cbr 210 ------- 1 2.0 3.0 15 16
+ 0.01344 2 3 cbr 210 ------- 1 2.0 3.0 16 17
- 0.01344 2 3 cbr 210 ------- 1 2.0 3.0 16 17
+ 0.01428 2 3 cbr 210 ------- 1 2.0 3.0 17 18
- 0.01428 2 3 cbr 210 ------- 1 2.0 3.0 17 18
r 0.015032 0 2 tcp 40 ------- 2 0.0 4.0 0 1
+ 0.015032 2 3 tcp 40 ------- 2 0.0 4.0 0 1
- 0.015032 2 3 tcp 40 ------- 2 0.0 4.0 0 1
+ 0.01512 2 3 cbr 210 ------- 1 2.0 3.0 18 19
- 0.01512 2 3 cbr 210 ------- 1 2.0 3.0 18 19
r 0.015168 2 3 cbr 210 ------- 1 2.0 3.0 0 0
+ 0.01596 2 3 cbr 210 ------- 1 2.0 3.0 19 20
- 0.01596 2 3 cbr 210 ------- 1 2.0 3.0 19 20
r 0.016008 2 3 cbr 210 ------- 1 2.0 3.0 1 2
+ 0.0168 2 3 cbr 210 ------- 1 2.0 3.0 20 21
- 0.0168 2 3 cbr 210 ------- 1 2.0 3.0 20 21
r 0.016848 2 3 cbr 210 ------- 1 2.0 3.0 2 3
+ 0.01764 2 3 cbr 210 ------- 1 2.0 3.0 21 22
- 0.01764 2 3 cbr 210 ------- 1 2.0 3.0 21 22
r 0.017688 2 3 cbr 210 ------- 1 2.0 3.0 3 4
+ 0.01848 2 3 cbr 210 ------- 1 2.0 3.0 22 23
- 0.01848 2 3 cbr 210 ------- 1 2.0 3.0 22 23
r 0.018528 2 3 cbr 210 ------- 1 2.0 3.0 4 5
+ 0.01932 2 3 cbr 210 ------- 1 2.0 3.0 23 24
- 0.01932 2 3 cbr 210 ------- 1 2.0 3.0 23 24
r 0.019368 2 3 cbr 210 ------- 1 2.0 3.0 5 6
+ 0.02016 2 3 cbr 210 ------- 1 2.0 3.0 24 25
- 0.02016 2 3 cbr 210 ------- 1 2.0 3.0 24 25
r 0.020208 2 3 cbr 210 ------- 1 2.0 3.0 6 7
+ 0.021 2 3 cbr 210 ------- 1 2.0 3.0 25 26
- 0.021 2 3 cbr 210 ------- 1 2.0 3.0 25 26
r 0.021048 2 3 cbr 210 ------- 1 2.0 3.0 7 8
+ 0.02184 2 3 cbr 210 ------- 1 2.0 3.0 26 27
- 0.02184 2 3 cbr 210 ------- 1 2.0 3.0 26 27
r 0.021888 2 3 cbr 210 ------- 1 2.0 3.0 8 9
+ 0.02268 2 3 cbr 210 ------- 1 2.0 3.0 27 28
- 0.02268 2 3 cbr 210 ------- 1 2.0 3.0 27 28
r 0.022728 2 3 cbr 210 ------- 1 2.0 3.0 9 10
+ 0.02352 2 3 cbr 210 ------- 1 2.0 3.0 28 29
- 0.02352 2 3 cbr 210 ------- 1 2.0 3.0 28 29
r 0.023568 2 3 cbr 210 ------- 1 2.0 3.0 10 11
+ 0.02436 2 3 cbr 210 ------- 1 2.0 3.0 29 30
- 0.02436 2 3 cbr 210 ------- 1 2.0 3.0 29 30
r 0.024408 2 3 cbr 210 ------- 1 2.0 3.0 11 12
+ 0.0252 2 3 cbr 210 ------- 1 2.0 3.0 30 31
- 0.0252 2 3 cbr 210 ------- 1 2.0 3.0 30 31
r 0.025248 2 3 cbr 210 ------- 1 2.0 3.0 12 13
+ 0.02604 2 3 cbr 210 ------- 1 2.0 3.0 31 32
- 0.02604 2 3 cbr 210 ------- 1 2.0 3.0 31 32
r 0.026088 2 3 cbr 210 ------- 1 2.0 3.0 13 14
+ 0.02688 2 3 cbr 210 ------- 1 2.0 3.0 32 33
- 0.02688 2 3 cbr 210 ------- 1 2.0 3.0 32 33
r 0.026928 2 3 cbr 210 ------- 1 2.0 3.0 14 15
+ 0.02772 2 3 cbr 210 ------- 1 2.0 3.0 33 34
- 0.02772 2 3 cbr 210 ------- 1 2.0 3.0 33 34
r 0.027768 2 3 cbr 210 ------- 1 2.0 3.0 15 16
+ 0.02856 2 3 cbr 210 ------- 1 2.0 3.0 34 35
- 0.02856 2 3 cbr 210 ------- 1 2.0 3.0 34 35
r 0.028608 2 3 cbr 210 ------- 1 2.0 3.0 16 17
+ 0.0294 2 3 cbr 210 ------- 1 2.0 3.0 35 36
- 0.0294 2 3 cbr 210 ------- 1 2.0 3.0 35 36
r 0.029448 2 3 cbr 210 ------- 1 2.0 3.0 17 18
r 0.030064 2 3 tcp 40 ------- 2 0.0 4.0 0 1
+ 0.030064 3 4 tcp 40 ------- 2 0.0 4.0 0 1
- 0.030064 3 4 tcp 40 ------- 2 0.0 4.0 0 1
+ 0.03024 2 3 cbr 210 ------- 1 2.0 3.0 36 37
- 0.03024 2 3 cbr 210 ------- 1 2.0 3.0 36 37
r 0.030288 2 3 cbr 210 ------- 1 2.0 3.0 18 19
+ 0.03108 2 3 cbr 210 ------- 1 2.0 3.0 37 38
- 0.03108 2 3 cbr 210 ------- 1 2.0 3.0 37 38
r 0.031128 2 3 cbr 210 ------- 1 2.0 3.0 19 20
+ 0.03192 2 3 cbr 210 ------- 1 2.0 3.0 38 39
- 0.03192 2 3 cbr 210 ------- 1 2.0 3.0 38 39
r 0.031968 2 3 cbr 210 ------- 1 2.0 3.0 20 21
+ 0.03276 2 3 cbr 210 ------- 1 2.0 3.0 39 40
- 0.03276 2 3 cbr 210 ------- 1 2.0 3.0 39 40
r 0.032808 2 3 cbr 210 ------- 1 2.0 3.0 21 22
+ 0.0336 2 3 cbr 210 ------- 1 2.0 3.0 40 41
- 0.0336 2 3 cbr 210 ------- 1 2.0 3.0 40 41
r 0.033648 2 3 cbr 210 ------- 1 2.0 3.0 22 23
+ 0.03444 2 3 cbr 210 ------- 1 2.0 3.0 41 42
- 0.03444 2 3 cbr 210 ------- 1 2.0 3.0 41 42
r 0.034488 2 3 cbr 210 ------- 1 2.0 3.0 23 24
+ 0.03528 2 3 cbr 210 ------- 1 2.0 3.0 42 43
- 0.03528 2 3 cbr 210 ------- 1 2.0 3.0 42 43
r 0.035328 2 3 cbr 210 ------- 1 2.0 3.0 24 25
+ 0.03612 2 3 cbr 210 ------- 1 2.0 3.0 43 44
- 0.03612 2 3 cbr 210 ------- 1 2.0 3.0 43 44
r 0.036168 2 3 cbr 210 ------- 1 2.0 3.0 25 26
+ 0.03696 2 3 cbr 210 ------- 1 2.0 3.0 44 45
- 0.03696 2 3 cbr 210 ------- 1 2.0 3.0 44 45
r 0.037008 2 3 cbr 210 ------- 1 2.0 3.0 26 27
+ 0.0378 2 3 cbr 210 ------- 1 2.0 3.0 45 46
- 0.0378 2 3 cbr 210 ------- 1 2.0 3.0 45 46
r 0.037848 2 3 cbr 210 ------- 1 2.0 3.0 27 28
+ 0.03864 2 3 cbr 210 ------- 1 2.0 3.0 46 47
- 0.03864 2 3 cbr 210 ------- 1 2.0 3.0 46 47
r 0.038688 2 3 cbr 210 ------- 1 2.0 3.0 28 29
+ 0.03948 2 3 cbr 210 ------- 1 2.0 3.0 47 48
- 0.03948 2 3 cbr 210 ------- 1 2.0 3.0 47 48
r 0.039528 2 3 cbr 210 ------- 1 2.0 3.0 29 30
+ 0.04032 2 3 cbr 210 ------- 1 2.0 3.0 48 49
- 0.04032 2 3 cbr 210 ------- 1 2.0 3.0 48 49
r 0.040368 2 3 cbr 210 ------- 1 2.0 3.0 30 31
+ 0.04116 2 3 cbr 210 ------- 1 2.0 3.0 49 50
- 0.04116 2 3 cbr 210 ------- 1 2.0 3.0 49 50
r 0.041208 2 3 cbr 210 ------- 1 2.0 3.0 31 32
+ 0.042 2 3 cbr 210 ------- 1 2.0 3.0 50 51
- 0.042 2 3 cbr 210 ------- 1 2.0 3.0 50 51
r 0.042048 2 3 cbr 210 ------- 1 2.0 3.0 32 33
+ 0.04284 2 3 cbr 210 ------- 1 2.0 3.0 51 52
- 0.04284 2 3 cbr 210 ------- 1 2.0 3.0 51 52
r 0.042888 2 3 cbr 210 ------- 1 2.0 3.0 33 34
+ 0.04368 2 3 cbr 210 ------- 1 2.0 3.0 52 53
- 0.04368 2 3 cbr 210 ------- 1 2.0 3.0 52 53
r 0.043728 2 3 cbr 210 ------- 1 2.0 3.0 34 35
+ 0.04452 2 3 cbr 210 ------- 1 2.0 3.0 53 54
- 0.04452 2 3 cbr 210 ------- 1 2.0 3.0 53 54
r 0.044568 2 3 cbr 210 ------- 1 2.0 3.0 35 36
r 0.045096 3 4 tcp 40 ------- 2 0.0 4.0 0 1
+ 0.045096 4 3 ack 40 ------- 2 4.0 0.0 0 55
- 0.045096 4 3 ack 40 ------- 2 4.0 0.0 0 55
+ 0.04536 2 3 cbr 210 ------- 1 2.0 3.0 54 56
- 0.04536 2 3 cbr 210 ------- 1 2.0 3.0 54 56
r 0.045408 2 3 cbr 210 ------- 1 2.0 3.0 36 37
+ 0.0462 2 3 cbr 210 ------- 1 2.0 3.0 55 57
- 0.0462 2 3 cbr 210 ------- 1 2.0 3.0 55 57
r 0.046248 2 3 cbr 210 ------- 1 2.0 3.0 37 38
+ 0.04704 2 3 cbr 210 ------- 1 2.0 3.0 56 58
- 0.04704 2 3 cbr 210 ------- 1 2.0 3.0 56 58
r 0.047088 2 3 cbr 210 ------- 1 2.0 3.0 38 39
+ 0.04788 2 3 cbr 210 ------- 1 2.0 3.0 57 59
- 0.04788 2 3 cbr 210 ------- 1 2.0 3.0 57 59
r 0.047928 2 3 cbr 210 ------- 1 2.0 3.0 39 40
+ 0.04872 2 3 cbr 210 ------- 1 2.0 3.0 58 60
- 0.04872 2 3 cbr 210 ------- 1 2.0 3.0 58 60
r 0.048768 2 3 cbr 210 ------- 1 2.0 3.0 40 41
+ 0.04956 2 3 cbr 210 ------- 1 2.0 3.0 59 61
- 0.04956 2 3 cbr 210 ------- 1 2.0 3.0 59 61
r 0.049608 2 3 cbr 210 ------- 1 2.0 3.0 41 42
+ 0.0504 2 3 cbr 210 ------- 1 2.0 3.0 60 62
- 0.0504 2 3 cbr 210 ------- 1 2.0 3.0 60 62
r 0.050448 2 3 cbr 210 ------- 1 2.0 3.0 42 43
+ 0.05124 2 3 cbr 210 ------- 1 2.0 3.0 61 63
- 0.05124 2 3 cbr 210 ------- 1 2.0 3.0 61 63
r 0.051288 2 3 cbr 210 ------- 1 2.0 3.0 43 44
+ 0.05208 2 3 cbr 210 ------- 1 2.0 3.0 62 64
- 0.05208 2 3 cbr 210 ------- 1 2.0 3.0 62 64
r 0.052128 2 3 cbr 210 ------- 1 2.0 3.0 44 45
+ 0.05292 2 3 cbr 210 ------- 1 2.0 3.0 63 65
- 0.05292 2 3 cbr 210 ------- 1 2.0 3.0 63 65
r 0.052968 2 3 cbr 210 ------- 1 2.0 3.0 45 46
+ 0.05376 2 3 cbr 210 ------- 1 2.0 3.0 64 66
- 0.05376 2 3 cbr 210 ------- 1 2.0 3.0 64 66
r 0.053808 2 3 cbr 210 ------- 1 2.0 3.0 46 47
+ 0.0546 2 3 cbr 210 ------- 1 2.0 3.0 65 67
- 0.0546 2 3 cbr 210 ------- 1 2.0 3.0 65 67
r 0.054648 2 3 cbr 210 ------- 1 2.0 3.0 47 48
+ 0.05544 2 3 cbr 210 ------- 1 2.0 3.0 66 68
- 0.05544 2 3 cbr 210 ------- 1 2.0 3.0 66 68
r 0.055488 2 3 cbr 210 ------- 1 2.0 3.0 48 49
+ 0.05628 2 3 cbr 210 ------- 1 2.0 3.0 67 69
- 0.05628 2 3 cbr 210 ------- 1 2.0 3.0 67 69
r 0.056328 2 3 cbr 210 ------- 1 2.0 3.0 49 50
+ 0.05712 2 3 cbr 210 ------- 1 2.0 3.0 68 70
- 0.05712 2 3 cbr 210 ------- 1 2.0 3.0 68 70
r 0.057168 2 3 cbr 210 ------- 1 2.0 3.0 50 51
+ 0.05796 2 3 cbr 210 ------- 1 2.0 3.0 69 71
- 0.05796 2 3 cbr 210 ------- 1 2.0 3.0 69 71
r 0.058008 2 3 cbr 210 ------- 1 2.0 3.0 51 52
+ 0.0588 2 3 cbr 210 ------- 1 2.0 3.0 70 72
- 0.0588 2 3 cbr 210 ------- 1 2.0 3.0 70 72
r 0.058848 2 3 cbr 210 ------- 1 2.0 3.0 52 53
+ 0.05964 2 3 cbr 210 ------- 1 2.0 3.0 71 73
- 0.05964 2 3 cbr 210 ------- 1 2.0 3.0 71 73
r 0.059688 2 3 cbr 210 ------- 1 2.0 3.0 53 54
r 0.060128 4 3 ack 40 ------- 2 4.0 0.0 0 55
+ 0.060128 3 2 ack 40 ------- 2 4.0 0.0 0 55
- 0.060128 3 2 ack 40 ------- 2 4.0 0.0 0 55
+ 0.06048 2 3 cbr 210 ------- 1 2.0 3.0 72 74
- 0.06048 2 3 cbr 210 ------- 1 2.0 3.0 72 74
r 0.060528 2 3 cbr 210 ------- 1 2.0 3.0 54 56
+ 0.06132 2 3 cbr 210 ------- 1 2.0 3.0 73 75
- 0.06132 2 3 cbr 210 ------- 1 2.0 3.0 73 75
r 0.061368 2 3 cbr 210 ------- 1 2.0 3.0 55 57
+ 0.06216 2 3 cbr 210 ------- 1 2.0 3.0 74 76
- 0.06216 2 3 cbr 210 ------- 1 2.0 3.0 74 76
r 0.062208 2 3 cbr 210 ------- 1 2.0 3.0 56 58
+ 0.063 2 3 cbr 210 ------- 1 2.0 3.0 75 77
- 0.063 2 3 cbr 210 ------- 1 2.0 3.0 75 77
r 0.063048 2 3 cbr 210 ------- 1 2.0 3.0 57 59
+ 0.06384 2 3 cbr 210 ------- 1 2.0 3.0 76 78
- 0.06384 2 3 cbr 210 ------- 1 2.0 3.0 76 78
r 0.063888 2 3 cbr 210 ------- 1 2.0 3.0 58 60
+ 0.06468 2 3 cbr 210 ------- 1 2.0 3.0 77 79
- 0.06468 2 3 cbr 210 ------- 1 2.0 3.0 77 79
r 0.064728 2 3 cbr 210 ------- 1 2.0 3.0 59 61
+ 0.06552 2 3 cbr 210 ------- 1 2.0 3.0 78 80
- 0.06552 2 3 cbr 210 ------- 1 2.0 3.0 78 80
r 0.065568 2 3 cbr 210 ------- 1 2.0 3.0 60 62
+ 0.06636 2 3 cbr 210 ------- 1 2.0 3.0 79 81
- 0.06636 2 3 cbr 210 ------- 1 2.0 3.0 79 81
r 0.066408 2 3 cbr 210 ------- 1 2.0 3.0 61 63
+ 0.0672 2 3 cbr 210 ------- 1 2.0 3.0 80 82
- 0.0672 2 3 cbr 210 ------- 1 2.0 3.0 80 82
r 0.067248 2 3 cbr 210 ------- 1 2.0 3.0 62 64
+ 0.06804 2 3 cbr 210 ------- 1 2.0 3.0 81 83
- 0.06804 2 3 cbr 210 ------- 1 2.0 3.0 81 83
r 0.068088 2 3 cbr 210 ------- 1 2.0 3.0 63 65
+ 0.06888 2 3 cbr 210 ------- 1 2.0 3.0 82 84
- 0.06888 2 3 cbr 210 ------- 1 2.0 3.0 82 84
r 0.068928 2 3 cbr 210 ------- 1 2.0 3.0 64 66
+ 0.06972 2 3 cbr 210 ------- 1 2.0 3.0 83 85
- 0.06972 2 3 cbr 210 ------- 1 2.0 3.0 83 85
r 0.069768 2 3 cbr 210 ------- 1 2.0 3.0 65 67
+ 0.07056 2 3 cbr 210 ------- 1 2.0 3.0 84 86
- 0.07056 2 3 cbr 210 ------- 1 2.0 3.0 84 86
r 0.070608 2 3 cbr 210 ------- 1 2.0 3.0 66 68
+ 0.0714 2 3 cbr 210 ------- 1 2.0 3.0 85 87
- 0.0714 2 3 cbr 210 ------- 1 2.0 3.0 85 87
r 0.071448 2 3 cbr 210 ------- 1 2.0 3.0 67 69
+ 0.07224 2 3 cbr 210 ------- 1 2.0 3.0 86 88
- 0.07224 2 3 cbr 210 ------- 1 2.0 3.0 86 88
r 0.072288 2 3 cbr 210 ------- 1 2.0 3.0 68 70
+ 0.07308 2 3 cbr 210 ------- 1 2.0 3.0 87 89
- 0.07308 2 3 cbr 210 ------- 1 2.0 3.0 87 89
r 0.073128 2 3 cbr 210 ------- 1 2.0 3.0 69 71
+ 0.07392 2 3 cbr 210 ------- 1 2.0 3.0 88 90
- 0.07392 2 3 cbr 210 ------- 1 2.0 3.0 88 90
r 0.073968 2 3 cbr 210 ------- 1 2.0 3.0 70 72
+ 0.07476 2 3 cbr 210 ------- 1 2.0 3.0 89 91
- 0.07476 2 3 cbr 210 ------- 1 2.0 3.0 89 91
r 0.074808 2 3 cbr 210 ------- 1 2.0 3.0 71 73
r 0.07516 3 2 ack 40 ------- 2 4.0 0.0 0 55
+ 0.07516 2 0 ack 40 ------- 2 4.0 0.0 0 55
- 0.07516 2 0 ack 40 ------- 2 4.0 0.0 0 55
+ 0.0756 2 3 cbr 210 ------- 1 2.0 3.0 90 92
- 0.0756 2 3 cbr 210 ------- 1 2.0 3.0 90 92
r 0.075648 2 3 cbr 210 ------- 1 2.0 3.0 72 74
+ 0.07644 2 3 cbr 210 ------- 1 2.0 3.0 91 93
- 0.07644 2 3 cbr 210 ------- 1 2.0 3.0 91 93
r 0.076488 2 3 cbr 210 ------- 1 2.0 3.0 73 75
+ 0.07728 2 3 cbr 210 ------- 1 2.0 3.0 92 94
- 0.07728 2 3 cbr 210 ------- 1 2.0 3.0 92 94
r 0.077328 2 3 cbr 210 ------- 1 2.0 3.0 74 76
+ 0.07812 2 3 cbr 210 ------- 1 2.0 3.0 93 95
- 0.07812 2 3 cbr 210 ------- 1 2.0 3.0 93 95
r 0.078168 2 3 cbr 210 ------- 1 2.0 3.0 75 77
+ 0.07896 2 3 cbr 210 ------- 1 2.0 3.0 94 96
- 0.07896 2 3 cbr 210 ------- 1 2.0 3.0 94 96
r 0.079008 2 3 cbr 210 ------- 1 2.0 3.0 76 78
+ 0.0798 2 3 cbr 210 ------- 1 2.0 3.0 95 97
- 0.0798 2 3 cbr 210 ------- 1 2.0 3.0 95 97
r 0.079848 2 3 cbr 210 ------- 1 2.0 3.0 77 79
+ 0.08064 2 3 cbr 210 ------- 1 2.0 3.0 96 98
- 0.08064 2 3 cbr 210 ------- 1 2.0 3.0 96 98
r 0.080688 2 3 cbr 210 ------- 1 2.0 3.0 78 80
+ 0.08148 2 3 cbr 210 ------- 1 2.0 3.0 97 99
- 0.08148 2 3 cbr 210 ------- 1 2.0 3.0 97 99
r 0.081528 2 3 cbr 210 ------- 1 2.0 3.0 79 81
+ 0.08232 2 3 cbr 210 ------- 1 2.0 3.0 98 100
- 0.08232 2 3 cbr 210 ------- 1 2.0 3.0 98 100
r 0.082368 2 3 cbr 210 ------- 1 2.0 3.0 80 82
+ 0.08316 2 3 cbr 210 ------- 1 2.0 3.0 99 101
- 0.08316 2 3 cbr 210 ------- 1 2.0 3.0 99 101
r 0.083208 2 3 cbr 210 ------- 1 2.0 3.0 81 83
+ 0.084 2 3 cbr 210 ------- 1 2.0 3.0 100 102
- 0.084 2 3 cbr 210 ------- 1 2.0 3.0 100 102
r 0.084048 2 3 cbr 210 ------- 1 2.0 3.0 82 84
+ 0.08484 2 3 cbr 210 ------- 1 2.0 3.0 101 103
- 0.08484 2 3 cbr 210 ------- 1 2.0 3.0 101 103
r 0.084888 2 3 cbr 210 ------- 1 2.0 3.0 83 85
+ 0.08568 2 3 cbr 210 ------- 1 2.0 3.0 102 104
- 0.08568 2 3 cbr 210 ------- 1 2.0 3.0 102 104
r 0.085728 2 3 cbr 210 ------- 1 2.0 3.0 84 86
+ 0.08652 2 3 cbr 210 ------- 1 2.0 3.0 103 105
- 0.08652 2 3 cbr 210 ------- 1 2.0 3.0 103 105
r 0.086568 2 3 cbr 210 ------- 1 2.0 3.0 85 87
+ 0.08736 2 3 cbr 210 ------- 1 2.0 3.0 104 106
- 0.08736 2 3 cbr 210 ------- 1 2.0 3.0 104 106
r 0.087408 2 3 cbr 210 ------- 1 2.0 3.0 86 88
+ 0.0882 2 3 cbr 210 ------- 1 2.0 3.0 105 107
- 0.0882 2 3 cbr 210 ------- 1 2.0 3.0 105 107
r 0.088248 2 3 cbr 210 ------- 1 2.0 3.0 87 89
+ 0.08904 2 3 cbr 210 ------- 1 2.0 3.0 106 108
- 0.08904 2 3 cbr 210 ------- 1 2.0 3.0 106 108
r 0.089088 2 3 cbr 210 ------- 1 2.0 3.0 88 90
+ 0.08988 2 3 cbr 210 ------- 1 2.0 3.0 107 109
- 0.08988 2 3 cbr 210 ------- 1 2.0 3.0 107 109
r 0.089928 2 3 cbr 210 ------- 1 2.0 3.0 89 91
r 0.090192 2 0 ack 40 ------- 2 4.0 0.0 0 55
+ 0.090192 0 2 tcp 1040 ------- 2 0.0 4.0 1 110
- 0.090192 0 2 tcp 1040 ------- 2 0.0 4.0 1 110
+ 0.090192 0 2 tcp 1040 ------- 2 0.0 4.0 2 111
+ 0.09072 2 3 cbr 210 ------- 1 2.0 3.0 108 112
- 0.09072 2 3 cbr 210 ------- 1 2.0 3.0 108 112
r 0.090768 2 3 cbr 210 ------- 1 2.0 3.0 90 92
- 0.091024 0 2 tcp 1040 ------- 2 0.0 4.0 2 111
+ 0.09156 2 3 cbr 210 ------- 1 2.0 3.0 109 113
- 0.09156 2 3 cbr 210 ------- 1 2.0 3.0 109 113
r 0.091608 2 3 cbr 210 ------- 1 2.0 3.0 91 93
+ 0.0924 2 3 cbr 210 ------- 1 2.0 3.0 110 114
- 0.0924 2 3 cbr 210 ------- 1 2.0 3.0 110 114
r 0.092448 2 3 cbr 210 ------- 1 2.0 3.0 92 94
+ 0.09324 2 3 cbr 210 ------- 1 2.0 3.0 111 115
- 0.09324 2 3 cbr 210 ------- 1 2.0 3.0 111 115
r 0.093288 2 3 cbr 210 ------- 1 2.0 3.0 93 95
+ 0.09408 2 3 cbr 210 ------- 1 2.0 3.0 112 116
- 0.09408 2 3 cbr 210 ------- 1 2.0 3.0 112 116
r 0.094128 2 3 cbr 210 ------- 1 2.0 3.0 94 96
+ 0.09492 2 3 cbr 210 ------- 1 2.0 3.0 113 117
- 0.09492 2 3 cbr 210 ------- 1 2.0 3.0 113 117
r 0.094968 2 3 cbr 210 ------- 1 2.0 3.0 95 97
+ 0.09576 2 3 cbr 210 ------- 1 2.0 3.0 114 118
- 0.09576 2 3 cbr 210 ------- 1 2.0 3.0 114 118
r 0.095808 2 3 cbr 210 ------- 1 2.0 3.0 96 98
+ 0.0966 2 3 cbr 210 ------- 1 2.0 3.0 115 119
- 0.0966 2 3 cbr 210 ------- 1 2.0 3.0 115 119
r 0.096648 2 3 cbr 210 ------- 1 2.0 3.0 97 99
+ 0.09744 2 3 cbr 210 ------- 1 2.0 3.0 116 120
- 0.09744 2 3 cbr 210 ------- 1 2.0 3.0 116 120
r 0.097488 2 3 cbr 210 ------- 1 2.0 3.0 98 100
+ 0.09828 2 3 cbr 210 ------- 1 2.0 3.0 117 121
- 0.09828 2 3 cbr 210 ------- 1 2.0 3.0 117 121
r 0.098328 2 3 cbr 210 ------- 1 2.0 3.0 99 101
+ 0.09912 2 3 cbr 210 ------- 1 2.0 3.0 118 122
- 0.09912 2 3 cbr 210 ------- 1 2.0 3.0 118 122
r 0.099168 2 3 cbr 210 ------- 1 2.0 3.0 100 102
+ 0.09996 2 3 cbr 210 ------- 1 2.0 3.0 119 123
- 0.09996 2 3 cbr 210 ------- 1 2.0 3.0 119 123
r 0.100008 2 3 cbr 210 ------- 1 2.0 3.0 101 103
+ 0.1008 2 3 cbr 210 ------- 1 2.0 3.0 120 124
- 0.1008 2 3 cbr 210 ------- 1 2.0 3.0 120 124
r 0.100848 2 3 cbr 210 ------- 1 2.0 3.0 102 104
+ 0.10164 2 3 cbr 210 ------- 1 2.0 3.0 121 125
- 0.10164 2 3 cbr 210 ------- 1 2.0 3.0 121 125
r 0.101688 2 3 cbr 210 ------- 1 2.0 3.0 103 105
+ 0.10248 2 3 cbr 210 ------- 1 2.0 3.0 122 126
- 0.10248 2 3 cbr 210 ------- 1 2.0 3.0 122 126
r 0.102528 2 3 cbr 210 ------- 1 2.0 3.0 104 106
+ 0.10332 2 3 cbr 210 ------- 1 2.0 3.0 123 127
- 0.10332 2 3 cbr 210 ------- 1 2.0 3.0 123 127
r 0.103368 2 3 cbr 210 ------- 1 2.0 3.0 105 107
+ 0.10416 2 3 cbr 210 ------- 1 2.0 3.0 124 128
- 0.10416 2 3 cbr 210 ------- 1 2.0 3.0 124 128
r 0.104208 2 3 cbr 210 ------- 1 2.0 3.0 106 108
+ 0.105 2 3 cbr 210 ------- 1 2.0 3.0 125 129
- 0.105 2 3 cbr 210 ------- 1 2.0 3.0 125 129
r 0.105048 2 3 cbr 210 ------- 1 2.0 3.0 107 109
+ 0.10584 2 3 cbr 210 ------- 1 2.0 3.0 126 130
- 0.10584 2 3 cbr 210 ------- 1 2.0 3.0 126 130
r 0.105888 2 3 cbr 210 ------- 1 2.0 3.0 108 112
r 0.106024 0 2 tcp 1040 ------- 2 0.0 4.0 1 110
+ 0.106024 2 3 tcp 1040 ------- 2 0.0 4.0 1 110
- 0.106024 2 3 tcp 1040 ------- 2 0.0 4.0 1 110
+ 0.10668 2 3 cbr 210 ------- 1 2.0 3.0 127 131
r 0.106728 2 3 cbr 210 ------- 1 2.0 3.0 109 113
r 0.106856 0 2 tcp 1040 ------- 2 0.0 4.0 2 111
+ 0.106856 2 3 tcp 1040 ------- 2 0.0 4.0 2 111
- 0.106856 2 3 cbr 210 ------- 1 2.0 3.0 127 131
- 0.107024 2 3 tcp 1040 ------- 2 0.0 4.0 2 111
+ 0.10752 2 3 cbr 210 ------- 1 2.0 3.0 128 132
r 0.107568 2 3 cbr 210 ------- 1 2.0 3.0 110 114
- 0.107856 2 3 cbr 210 ------- 1 2.0 3.0 128 132
+ 0.10836 2 3 cbr 210 ------- 1 2.0 3.0 129 133
- 0.10836 2 3 cbr 210 ------- 1 2.0 3.0 129 133
r 0.108408 2 3 cbr 210 ------- 1 2.0 3.0 111 115
+ 0.1092 2 3 cbr 210 ------- 1 2.0 3.0 130 134
- 0.1092 2 3 cbr 210 ------- 1 2.0 3.0 130 134
r 0.109248 2 3 cbr 210 ------- 1 2.0 3.0 112 116
+ 0.11004 2 3 cbr 210 ------- 1 2.0 3.0 131 135
- 0.11004 2 3 cbr 210 ------- 1 2.0 3.0 131 135
r 0.110088 2 3 cbr 210 ------- 1 2.0 3.0 113 117
+ 0.11088 2 3 cbr 210 ------- 1 2.0 3.0 132 136
- 0.11088 2 3 cbr 210 ------- 1 2.0 3.0 132 136
r 0.110928 2 3 cbr 210 ------- 1 2.0 3.0 114 118
+ 0.11172 2 3 cbr 210 ------- 1 2.0 3.0 133 137
- 0.11172 2 3 cbr 210 ------- 1 2.0 3.0 133 137
r 0.111768 2 3 cbr 210 ------- 1 2.0 3.0 115 119
+ 0.11256 2 3 cbr 210 ------- 1 2.0 3.0 134 138
- 0.11256 2 3 cbr 210 ------- 1 2.0 3.0 134 138
r 0.112608 2 3 cbr 210 ------- 1 2.0 3.0 116 120
+ 0.1134 2 3 cbr 210 ------- 1 2.0 3.0 135 139
- 0.1134 2 3 cbr 210 ------- 1 2.0 3.0 135 139
r 0.113448 2 3 cbr 210 ------- 1 2.0 3.0 117 121
+ 0.11424 2 3 cbr 210 ------- 1 2.0 3.0 136 140
- 0.11424 2 3 cbr 210 ------- 1 2.0 3.0 136 140
r 0.114288 2 3 cbr 210 ------- 1 2.0 3.0 118 122
+ 0.11508 2 3 cbr 210 ------- 1 2.0 3.0 137 141
- 0.11508 2 3 cbr 210 ------- 1 2.0 3.0 137 141
r 0.115128 2 3 cbr 210 ------- 1 2.0 3.0 119 123
+ 0.11592 2 3 cbr 210 ------- 1 2.0 3.0 138 142
- 0.11592 2 3 cbr 210 ------- 1 2.0 3.0 138 142
r 0.115968 2 3 cbr 210 ------- 1 2.0 3.0 120 124
+ 0.11676 2 3 cbr 210 ------- 1 2.0 3.0 139 143
- 0.11676 2 3 cbr 210 ------- 1 2.0 3.0 139 143
r 0.116808 2 3 cbr 210 ------- 1 2.0 3.0 121 125
+ 0.1176 2 3 cbr 210 ------- 1 2.0 3.0 140 144
- 0.1176 2 3 cbr 210 ------- 1 2.0 3.0 140 144
r 0.117648 2 3 cbr 210 ------- 1 2.0 3.0 122 126
+ 0.11844 2 3 cbr 210 ------- 1 2.0 3.0 141 145
- 0.11844 2 3 cbr 210 ------- 1 2.0 3.0 141 145
r 0.118488 2 3 cbr 210 ------- 1 2.0 3.0 123 127
+ 0.11928 2 3 cbr 210 ------- 1 2.0 3.0 142 146
- 0.11928 2 3 cbr 210 ------- 1 2.0 3.0 142 146
r 0.119328 2 3 cbr 210 ------- 1 2.0 3.0 124 128
+ 0.12012 2 3 cbr 210 ------- 1 2.0 3.0 143 147
- 0.12012 2 3 cbr 210 ------- 1 2.0 3.0 143 147
r 0.120168 2 3 cbr 210 ------- 1 2.0 3.0 125 129
+ 0.12096 2 3 cbr 210 ------- 1 2.0 3.0 144 148
- 0.12096 2 3 cbr 210 ------- 1 2.0 3.0 144 148
r 0.121008 2 3 cbr 210 ------- 1 2.0 3.0 126 130
+ 0.1218 2 3 cbr 210 ------- 1 2.0 3.0 145 149
- 0.1218 2 3 cbr 210 ------- 1 2.0 3.0 145 149
r 0.121856 2 3 tcp 1040 ------- 2 0.0 4.0 1 110
+ 0.121856 3 4 tcp 1040 ------- 2 0.0 4.0 1 110
- 0.121856 3 4 tcp 1040 ------- 2 0.0 4.0 1 110
r 0.122024 2 3 cbr 210 ------- 1 2.0 3.0 127 131
+ 0.12264 2 3 cbr 210 ------- 1 2.0 3.0 146 150
- 0.12264 2 3 cbr 210 ------- 1 2.0 3.0 146 150
r 0.122856 2 3 tcp 1040 ------- 2 0.0 4.0 2 111
+ 0.122856 3 4 tcp 1040 ------- 2 0.0 4.0 2 111
- 0.122856 3 4 tcp 1040 ------- 2 0.0 4.0 2 111
r 0.123024 2 3 cbr 210 ------- 1 2.0 3.0 128 132
+ 0.12348 2 3 cbr 210 ------- 1 2.0 3.0 147 151
- 0.12348 2 3 cbr 210 ------- 1 2.0 3.0 147 151
r 0.123528 2 3 cbr 210 ------- 1 2.0 3.0 129 133
+ 0.12432 2 3 cbr 210 ------- 1 2.0 3.0 148 152
- 0.12432 2 3 cbr 210 ------- 1 2.0 3.0 148 152
r 0.124368 2 3 cbr 210 ------- 1 2.0 3.0 130 134
+ 0.12516 2 3 cbr 210 ------- 1 2.0 3.0 149 153
- 0.12516 2 3 cbr 210 ------- 1 2.0 3.0 149 153
r 0.125208 2 3 cbr 210 ------- 1 2.0 3.0 131 135
+ 0.126 2 3 cbr 210 ------- 1 2.0 3.0 150 154
- 0.126 2 3 cbr 210 ------- 1 2.0 3.0 150 154
r 0.126048 2 3 cbr 210 ------- 1 2.0 3.0 132 136
+ 0.12684 2 3 cbr 210 ------- 1 2.0 3.0 151 155
- 0.12684 2 3 cbr 210 ------- 1 2.0 3.0 151 155
r 0.126888 2 3 cbr 210 ------- 1 2.0 3.0 133 137
+ 0.12768 2 3 cbr 210 ------- 1 2.0 3.0 152 156
- 0.12768 2 3 cbr 210 ------- 1 2.0 3.0 152 156
r 0.127728 2 3 cbr 210 ------- 1 2.0 3.0 134 138
+ 0.12852 2 3 cbr 210 ------- 1 2.0 3.0 153 157
- 0.12852 2 3 cbr 210 ------- 1 2.0 3.0 153 157
r 0.128568 2 3 cbr 210 ------- 1 2.0 3.0 135 139
+ 0.12936 2 3 cbr 210 ------- 1 2.0 3.0 154 158
- 0.12936 2 3 cbr 210 ------- 1 2.0 3.0 154 158
r 0.129408 2 3 cbr 210 ------- 1 2.0 3.0 136 140
+ 0.1302 2 3 cbr 210 ------- 1 2.0 3.0 155 159
- 0.1302 2 3 cbr 210 ------- 1 2.0 3.0 155 159
r 0.130248 2 3 cbr 210 ------- 1 2.0 3.0 137 141
+ 0.13104 2 3 cbr 210 ------- 1 2.0 3.0 156 160
- 0.13104 2 3 cbr 210 ------- 1 2.0 3.0 156 160
r 0.131088 2 3 cbr 210 ------- 1 2.0 3.0 138 142
+ 0.13188 2 3 cbr 210 ------- 1 2.0 3.0 157 161
- 0.13188 2 3 cbr 210 ------- 1 2.0 3.0 157 161
r 0.131928 2 3 cbr 210 ------- 1 2.0 3.0 139 143
+ 0.13272 2 3 cbr 210 ------- 1 2.0 3.0 158 162
- 0.13272 2 3 cbr 210 ------- 1 2.0 3.0 158 162
r 0.132768 2 3 cbr 210 ------- 1 2.0 3.0 140 144
+ 0.13356 2 3 cbr 210 ------- 1 2.0 3.0 159 163
- 0.13356 2 3 cbr 210 ------- 1 2.0 3.0 159 163
r 0.133608 2 3 cbr 210 ------- 1 2.0 3.0 141 145
+ 0.1344 2 3 cbr 210 ------- 1 2.0 3.0 160 164
- 0.1344 2 3 cbr 210 ------- 1 2.0 3.0 160 164
r 0.134448 2 3 cbr 210 ------- 1 2.0 3.0 142 146
+ 0.13524 2 3 cbr 210 ------- 1 2.0 3.0 161 165
- 0.13524 2 3 cbr 210 ------- 1 2.0 3.0 161 165
r 0.135288 2 3 cbr 210 ------- 1 2.0 3.0 143 147
+ 0.13608 2 3 cbr 210 ------- 1 2.0 3.0 162 166
- 0.13608 2 3 cbr 210 ------- 1 2.0 3.0 162 166
r 0.136128 2 3 cbr 210 ------- 1 2.0 3.0 144 148
+ 0.13692 2 3 cbr 210 ------- 1 2.0 3.0 163 167
- 0.13692 2 3 cbr 210 ------- 1 2.0 3.0 163 167
r 0.136968 2 3 cbr 210 ------- 1 2.0 3.0 145 149
r 0.137688 3 4 tcp 1040 ------- 2 0.0 4.0 1 110
+ 0.137688 4 3 ack 40 ------- 2 4.0 0.0 1 168
- 0.137688 4 3 ack 40 ------- 2 4.0 0.0 1 168
+ 0.13776 2 3 cbr 210 ------- 1 2.0 3.0 164 169
- 0.13776 2 3 cbr 210 ------- 1 2.0 3.0 164 169
r 0.137808 2 3 cbr 210 ------- 1 2.0 3.0 146 150
+ 0.1386 2 3 cbr 210 ------- 1 2.0 3.0 165 170
- 0.1386 2 3 cbr 210 ------- 1 2.0 3.0 165 170
r 0.138648 2 3 cbr 210 ------- 1 2.0 3.0 147 151
r 0.138688 3 4 tcp 1040 ------- 2 0.0 4.0 2 111
+ 0.138688 4 3 ack 40 ------- 2 4.0 0.0 2 171
- 0.138688 4 3 ack 40 ------- 2 4.0 0.0 2 171
+ 0.13944 2 3 cbr 210 ------- 1 2.0 3.0 166 172
- 0.13944 2 3 cbr 210 ------- 1 2.0 3.0 166 172
r 0.139488 2 3 cbr 210 ------- 1 2.0 3.0 148 152
+ 0.14028 2 3 cbr 210 ------- 1 2.0 3.0 167 173
- 0.14028 2 3 cbr 210 ------- 1 2.0 3.0 167 173
r 0.140328 2 3 cbr 210 ------- 1 2.0 3.0 149 153
+ 0.14112 2 3 cbr 210 ------- 1 2.0 3.0 168 174
- 0.14112 2 3 cbr 210 ------- 1 2.0 3.0 168 174
r 0.141168 2 3 cbr 210 ------- 1 2.0 3.0 150 154
+ 0.14196 2 3 cbr 210 ------- 1 2.0 3.0 169 175
- 0.14196 2 3 cbr 210 ------- 1 2.0 3.0 169 175
r 0.142008 2 3 cbr 210 ------- 1 2.0 3.0 151 155
+ 0.1428 2 3 cbr 210 ------- 1 2.0 3.0 170 176
- 0.1428 2 3 cbr 210 ------- 1 2.0 3.0 170 176
r 0.142848 2 3 cbr 210 ------- 1 2.0 3.0 152 156
+ 0.14364 2 3 cbr 210 ------- 1 2.0 3.0 171 177
- 0.14364 2 3 cbr 210 ------- 1 2.0 3.0 171 177
r 0.143688 2 3 cbr 210 ------- 1 2.0 3.0 153 157
+ 0.14448 2 3 cbr 210 ------- 1 2.0 3.0 172 178
- 0.14448 2 3 cbr 210 ------- 1 2.0 3.0 172 178
r 0.144528 2 3 cbr 210 ------- 1 2.0 3.0 154 158
+ 0.14532 2 3 cbr 210 ------- 1 2.0 3.0 173 179
- 0.14532 2 3 cbr 210 ------- 1 2.0 3.0 173 179
r 0.145368 2 3 cbr 210 ------- 1 2.0 3.0 155 159
+ 0.14616 2 3 cbr 210 ------- 1 2.0 3.0 174 180
- 0.14616 2 3 cbr 210 ------- 1 2.0 3.0 174 180
r 0.146208 2 3 cbr 210 ------- 1 2.0 3.0 156 160
+ 0.147 2 3 cbr 210 ------- 1 2.0 3.0 175 181
- 0.147 2 3 cbr 210 ------- 1 2.0 3.0 175 181
r 0.147048 2 3 cbr 210 ------- 1 2.0 3.0 157 161
+ 0.14784 2 3 cbr 210 ------- 1 2.0 3.0 176 182
- 0.14784 2 3 cbr 210 ------- 1 2.0 3.0 176 182
r 0.147888 2 3 cbr 210 ------- 1 2.0 3.0 158 162
+ 0.14868 2 3 cbr 210 ------- 1 2.0 3.0 177 183
- 0.14868 2 3 cbr 210 ------- 1 2.0 3.0 177 183
r 0.148728 2 3 cbr 210 ------- 1 2.0 3.0 159 163
+ 0.14952 2 3 cbr 210 ------- 1 2.0 3.0 178 184
- 0.14952 2 3 cbr 210 ------- 1 2.0 3.0 178 184
r 0.149568 2 3 cbr 210 ------- 1 2.0 3.0 160 164
+ 0.15036 2 3 cbr 210 ------- 1 2.0 3.0 179 185
- 0.15036 2 3 cbr 210 ------- 1 2.0 3.0 179 185
r 0.150408 2 3 cbr 210 ------- 1 2.0 3.0 161 165
+ 0.1512 2 3 cbr 210 ------- 1 2.0 3.0 180 186
- 0.1512 2 3 cbr 210 ------- 1 2.0 3.0 180 186
r 0.151248 2 3 cbr 210 ------- 1 2.0 3.0 162 166
+ 0.15204 2 3 cbr 210 ------- 1 2.0 3.0 181 187
- 0.15204 2 3 cbr 210 ------- 1 2.0 3.0 181 187
r 0.152088 2 3 cbr 210 ------- 1 2.0 3.0 163 167
r 0.15272 4 3 ack 40 ------- 2 4.0 0.0 1 168
+ 0.15272 3 2 ack 40 ------- 2 4.0 0.0 1 168
- 0.15272 3 2 ack 40 ------- 2 4.0 0.0 1 168
+ 0.15288 2 3 cbr 210 ------- 1 2.0 3.0 182 188
- 0.15288 2 3 cbr 210 ------- 1 2.0 3.0 182 188
r 0.152928 2 3 cbr 210 ------- 1 2.0 3.0 164 169
+ 0.15372 2 3 cbr 210 ------- 1 2.0 3.0 183 189
- 0.15372 2 3 cbr 210 ------- 1 2.0 3.0 183 189
r 0.15372 4 3 ack 40 ------- 2 4.0 0.0 2 171
+ 0.15372 3 2 ack 40 ------- 2 4.0 0.0 2 171
- 0.15372 3 2 ack 40 ------- 2 4.0 0.0 2 171
r 0.153768 2 3 cbr 210 ------- 1 2.0 3.0 165 170
+ 0.15456 2 3 cbr 210 ------- 1 2.0 3.0 184 190
- 0.15456 2 3 cbr 210 ------- 1 2.0 3.0 184 190
r 0.154608 2 3 cbr 210 ------- 1 2.0 3.0 166 172
+ 0.1554 2 3 cbr 210 ------- 1 2.0 3.0 185 191
- 0.1554 2 3 cbr 210 ------- 1 2.0 3.0 185 191
r 0.155448 2 3 cbr 210 ------- 1 2.0 3.0 167 173
+ 0.15624 2 3 cbr 210 ------- 1 2.0 3.0 186 192
- 0.15624 2 3 cbr 210 ------- 1 2.0 3.0 186 192
r 0.156288 2 3 cbr 210 ------- 1 2.0 3.0 168 174
+ 0.15708 2 3 cbr 210 ------- 1 2.0 3.0 187 193
- 0.15708 2 3 cbr 210 ------- 1 2.0 3.0 187 193
r 0.157128 2 3 cbr 210 ------- 1 2.0 3.0 169 175
+ 0.15792 2 3 cbr 210 ------- 1 2.0 3.0 188 194
- 0.15792 2 3 cbr 210 ------- 1 2.0 3.0 188 194
r 0.157968 2 3 cbr 210 ------- 1 2.0 3.0 170 176
+ 0.15876 2 3 cbr 210 ------- 1 2.0 3.0 189 195
- 0.15876 2 3 cbr 210 ------- 1 2.0 3.0 189 195
r 0.158808 2 3 cbr 210 ------- 1 2.0 3.0 171 177
+ 0.1596 2 3 cbr 210 ------- 1 2.0 3.0 190 196
- 0.1596 2 3 cbr 210 ------- 1 2.0 3.0 190 196
r 0.159648 2 3 cbr 210 ------- 1 2.0 3.0 172 178
+ 0.16044 2 3 cbr 210 ------- 1 2.0 3.0 191 197
- 0.16044 2 3 cbr 210 ------- 1 2.0 3.0 191 197
r 0.160488 2 3 cbr 210 ------- 1 2.0 3.0 173 179
+ 0.16128 2 3 cbr 210 ------- 1 2.0 3.0 192 198
- 0.16128 2 3 cbr 210 ------- 1 2.0 3.0 192 198
r 0.161328 2 3 cbr 210 ------- 1 2.0 3.0 174 180
+ 0.16212 2 3 cbr 210 ------- 1 2.0 3.0 193 199
- 0.16212 2 3 cbr 210 ------- 1 2.0 3.0 193 199
r 0.162168 2 3 cbr 210 ------- 1 2.0 3.0 175 181
+ 0.16296 2 3 cbr 210 ------- 1 2.0 3.0 194 200
- 0.16296 2 3 cbr 210 ------- 1 2.0 3.0 194 200
r 0.163008 2 3 cbr 210 ------- 1 2.0 3.0 176 182
+ 0.1638 2 3 cbr 210 ------- 1 2.0 3.0 195 201
- 0.1638 2 3 cbr 210 ------- 1 2.0 3.0 195 201
r 0.163848 2 3 cbr 210 ------- 1 2.0 3.0 177 183
+ 0.16464 2 3 cbr 210 ------- 1 2.0 3.0 196 202
- 0.16464 2 3 cbr 210 ------- 1 2.0 3.0 196 202
r 0.164688 2 3 cbr 210 ------- 1 2.0 3.0 178 184
+ 0.16548 2 3 cbr 210 ------- 1 2.0 3.0 197 203
- 0.16548 2 3 cbr 210 ------- 1 2.0 3.0 197 203
r 0.165528 2 3 cbr 210 ------- 1 2.0 3.0 179 185
+ 0.16632 2 3 cbr 210 ------- 1 2.0 3.0 198 204
- 0.16632 2 3 cbr 210 ------- 1 2.0 3.0 198 204
r 0.166368 2 3 cbr 210 ------- 1 2.0 3.0 180 186
+ 0.16716 2 3 cbr 210 ------- 1 2.0 3.0 199 205
- 0.16716 2 3 cbr 210 ------- 1 2.0 3.0 199 205
r 0.167208 2 3 cbr 210 ------- 1 2.0 3.0 181 187
r 0.167752 3 2 ack 40 ------- 2 4.0 0.0 1 168
+ 0.167752 2 0 ack 40 ------- 2 4.0 0.0 1 168
- 0.167752 2 0 ack 40 ------- 2 4.0 0.0 1 168
+ 0.168 2 3 cbr 210 ------- 1 2.0 3.0 200 206
- 0.168 2 3 cbr 210 ------- 1 2.0 3.0 200 206
r 0.168048 2 3 cbr 210 ------- 1 2.0 3.0 182 188
r 0.168752 3 2 ack 40 ------- 2 4.0 0.0 2 171
+ 0.168752 2 0 ack 40 ------- 2 4.0 0.0 2 171
- 0.168752 2 0 ack 40 ------- 2 4.0 0.0 2 171
+ 0.16884 2 3 cbr 210 ------- 1 2.0 3.0 201 207
- 0.16884 2 3 cbr 210 ------- 1 2.0 3.0 201 207