+ 0 2 3 cbr 210 ------- 1 2.0 3.0 0 0
- 0 2 3 cbr 210 ------- 1 2.0 3.0 0 0
+ 0 0 2 tcp 40 ------- 2 0.0 4.0 0 1
- 0 0 2 tcp 40 ------- 2 0.0 4.0 0 1
+ 0.00168 2 3 cbr 210 ------- 1 2.0 3.0 1 2
- 0.00168 2 3 cbr 210 ------- 1 2.0 3.0 1 2
+ 0.00336 2 3 cbr 210 ------- 1 2.0 3.0 2 3
- 0.00336 2 3 cbr 210 ------- 1 2.0 3.0 2 3
+ 0.00504 2 3 cbr 210 ------- 1 2.0 3.0 3 4
- 0.00504 2 3 cbr 210 ------- 1 2.0 3.0 3 4
+ 0.00672 2 3 cbr 210 ------- 1 2.0 3.0 4 5
- 0.00672 2 3 cbr 210 ------- 1 2.0 3.0 4 5
+ 0.0084 2 3 cbr 210 ------- 1 2.0 3.0 5 6
- 0.0084 2 3 cbr 210 ------- 1 2.0 3.0 5 6
+ 0.01008 2 3 cbr 210 ------- 1 2.0 3.0 6 7
- 0.01008 2 3 cbr 210 ------- 1 2.0 3.0 6 7
+ 0.01176 2 3 cbr 210 ------- 1 2.0 3.0 7 8
- 0.01176 2 3 cbr 210 ------- 1 2.0 3.0 7 8
+ 0.01344 2 3 cbr 210 ------- 1 2.0 3.0 8 9
- 0.01344 2 3 cbr 210 ------- 1 2.0 3.0 8 9
r 0.015032 0 2 tcp 40 ------- 2 0.0 4.0 0 1
+ 0.015032 2 3 tcp 40 ------- 2 0.0 4.0 0 1
- 0.015032 2 3 tcp 40 ------- 2 0.0 4.0 0 1
+ 0.01512 2 3 cbr 210 ------- 1 2.0 3.0 9 10
- 0.01512 2 3 cbr 210 ------- 1 2.0 3.0 9 10
r 0.015168 2 3 cbr 210 ------- 1 2.0 3.0 0 0
+ 0.0168 2 3 cbr 210 ------- 1 2.0 3.0 10 11
- 0.0168 2 3 cbr 210 ------- 1 2.0 3.0 10 11
r 0.016848 2 3 cbr 210 ------- 1 2.0 3.0 1 2
+ 0.01848 2 3 cbr 210 ------- 1 2.0 3.0 11 12
- 0.01848 2 3 cbr 210 ------- 1 2.0 3.0 11 12
r 0.018528 2 3 cbr 210 ------- 1 2.0 3.0 2 3
+ 0.02016 2 3 cbr 210 ------- 1 2.0 3.0 12 13
- 0.02016 2 3 cbr 210 ------- 1 2.0 3.0 12 13
r 0.020208 2 3 cbr 210 ------- 1 2.0 3.0 3 4
+ 0.02184 2 3 cbr 210 ------- 1 2.0 3.0 13 14
- 0.02184 2 3 cbr 210 ------- 1 2.0 3.0 13 14
r 0.021888 2 3 cbr 210 ------- 1 2.0 3.0 4 5
+ 0.02352 2 3 cbr 210 ------- 1 2.0 3.0 14 15
- 0.02352 2 3 cbr 210 ------- 1 2.0 3.0 14 15
r 0.023568 2 3 cbr 210 ------- 1 2.0 3.0 5 6
+ 0.0252 2 3 cbr 210 ------- 1 2.0 3.0 15 16
- 0.0252 2 3 cbr 210 ------- 1 2.0 3.0 15 16
r 0.025248 2 3 cbr 210 ------- 1 2.0 3.0 6 7
+ 0.02688 2 3 cbr 210 ------- 1 2.0 3.0 16 17
- 0.02688 2 3 cbr 210 ------- 1 2.0 3.0 16 17
r 0.026928 2 3 cbr 210 ------- 1 2.0 3.0 7 8
+ 0.02856 2 3 cbr 210 ------- 1 2.0 3.0 17 18
- 0.02856 2 3 cbr 210 ------- 1 2.0 3.0 17 18
r 0.028608 2 3 cbr 210 ------- 1 2.0 3.0 8 9
r 0.030064 2 3 tcp 40 ------- 2 0.0 4.0 0 1
+ 0.030064 3 4 tcp 40 ------- 2 0.0 4.0 0 1
- 0.030064 3 4 tcp 40 ------- 2 0.0 4.0 0 1
+ 0.03024 2 3 cbr 210 ------- 1 2.0 3.0 18 19
- 0.03024 2 3 cbr 210 ------- 1 2.0 3.0 18 19
r 0.030288 2 3 cbr 210 ------- 1 2.0 3.0 9 10
+ 0.03192 2 3 cbr 210 ------- 1 2.0 3.0 19 20
- 0.03192 2 3 cbr 210 ------- 1 2.0 3.0 19 20
r 0.031968 2 3 cbr 210 ------- 1 2.0 3.0 10 11
+ 0.0336 2 3 cbr 210 ------- 1 2.0 3.0 20 21
- 0.0336 2 3 cbr 210 ------- 1 2.0 3.0 20 21
r 0.033648 2 3 cbr 210 ------- 1 2.0 3.0 11 12
+ 0.03528 2 3 cbr 210 ------- 1 2.0 3.0 21 22
- 0.03528 2 3 cbr 210 ------- 1 2.0 3.0 21 22
r 0.035328 2 3 cbr 210 ------- 1 2.0 3.0 12 13
+ 0.03696 2 3 cbr 210 ------- 1 2.0 3.0 22 23
- 0.03696 2 3 cbr 210 ------- 1 2.0 3.0 22 23
r 0.037008 2 3 cbr 210 ------- 1 2.0 3.0 13 14
+ 0.03864 2 3 cbr 210 ------- 1 2.0 3.0 23 24
- 0.03864 2 3 cbr 210 ------- 1 2.0 3.0 23 24
r 0.038688 2 3 cbr 210 ------- 1 2.0 3.0 14 15
+ 0.04032 2 3 cbr 210 ------- 1 2.0 3.0 24 25
- 0.04032 2 3 cbr 210 ------- 1 2.0 3.0 24 25
r 0.040368 2 3 cbr 210 ------- 1 2.0 3.0 15 16
+ 0.042 2 3 cbr 210 ------- 1 2.0 3.0 25 26
- 0.042 2 3 cbr 210 ------- 1 2.0 3.0 25 26
r 0.042048 2 3 cbr 210 ------- 1 2.0 3.0 16 17
+ 0.04368 2 3 cbr 210 ------- 1 2.0 3.0 26 27
- 0.04368 2 3 cbr 210 ------- 1 2.0 3.0 26 27
r 0.043728 2 3 cbr 210 ------- 1 2.0 3.0 17 18
r 0.045096 3 4 tcp 40 ------- 2 0.0 4.0 0 1
+ 0.045096 4 3 ack 40 ------- 2 4.0 0.0 0 28
- 0.045096 4 3 ack 40 ------- 2 4.0 0.0 0 28
+ 0.04536 2 3 cbr 210 ------- 1 2.0 3.0 27 29
- 0.04536 2 3 cbr 210 ------- 1 2.0 3.0 27 29
r 0.045408 2 3 cbr 210 ------- 1 2.0 3.0 18 19
+ 0.04704 2 3 cbr 210 ------- 1 2.0 3.0 28 30
- 0.04704 2 3 cbr 210 ------- 1 2.0 3.0 28 30
r 0.047088 2 3 cbr 210 ------- 1 2.0 3.0 19 20
+ 0.04872 2 3 cbr 210 ------- 1 2.0 3.0 29 31
- 0.04872 2 3 cbr 210 ------- 1 2.0 3.0 29 31
r 0.048768 2 3 cbr 210 ------- 1 2.0 3.0 20 21
+ 0.0504 2 3 cbr 210 ------- 1 2.0 3.0 30 32
- 0.0504 2 3 cbr 210 ------- 1 2.0 3.0 30 32
r 0.050448 2 3 cbr 210 ------- 1 2.0 3.0 21 22
+ 0.05208 2 3 cbr 210 ------- 1 2.0 3.0 31 33
- 0.05208 2 3 cbr 210 ------- 1 2.0 3.0 31 33
r 0.052128 2 3 cbr 210 ------- 1 2.0 3.0 22 23
+ 0.05376 2 3 cbr 210 ------- 1 2.0 3.0 32 34
- 0.05376 2 3 cbr 210 ------- 1 2.0 3.0 32 34
r 0.053808 2 3 cbr 210 ------- 1 2.0 3.0 23 24
+ 0.05544 2 3 cbr 210 ------- 1 2.0 3.0 33 35
- 0.05544 2 3 cbr 210 ------- 1 2.0 3.0 33 35
r 0.055488 2 3 cbr 210 ------- 1 2.0 3.0 24 25
+ 0.05712 2 3 cbr 210 ------- 1 2.0 3.0 34 36
- 0.05712 2 3 cbr 210 ------- 1 2.0 3.0 34 36
r 0.057168 2 3 cbr 210 ------- 1 2.0 3.0 25 26
+ 0.0588 2 3 cbr 210 ------- 1 2.0 3.0 35 37
- 0.0588 2 3 cbr 210 ------- 1 2.0 3.0 35 37
r 0.058848 2 3 cbr 210 ------- 1 2.0 3.0 26 27
r 0.060128 4 3 ack 40 ------- 2 4.0 0.0 0 28
+ 0.060128 3 2 ack 40 ------- 2 4.0 0.0 0 28
- 0.060128 3 2 ack 40 ------- 2 4.0 0.0 0 28
+ 0.06048 2 3 cbr 210 ------- 1 2.0 3.0 36 38
- 0.06048 2 3 cbr 210 ------- 1 2.0 3.0 36 38
r 0.060528 2 3 cbr 210 ------- 1 2.0 3.0 27 29
+ 0.06216 2 3 cbr 210 ------- 1 2.0 3.0 37 39
- 0.06216 2 3 cbr 210 ------- 1 2.0 3.0 37 39
r 0.062208 2 3 cbr 210 ------- 1 2.0 3.0 28 30
+ 0.06384 2 3 cbr 210 ------- 1 2.0 3.0 38 40
- 0.06384 2 3 cbr 210 ------- 1 2.0 3.0 38 40
r 0.063888 2 3 cbr 210 ------- 1 2.0 3.0 29 31
+ 0.06552 2 3 cbr 210 ------- 1 2.0 3.0 39 41
- 0.06552 2 3 cbr 210 ------- 1 2.0 3.0 39 41
r 0.065568 2 3 cbr 210 ------- 1 2.0 3.0 30 32
+ 0.0672 2 3 cbr 210 ------- 1 2.0 3.0 40 42
- 0.0672 2 3 cbr 210 ------- 1 2.0 3.0 40 42
r 0.067248 2 3 cbr 210 ------- 1 2.0 3.0 31 33
+ 0.06888 2 3 cbr 210 ------- 1 2.0 3.0 41 43
- 0.06888 2 3 cbr 210 ------- 1 2.0 3.0 41 43
r 0.068928 2 3 cbr 210 ------- 1 2.0 3.0 32 34
+ 0.07056 2 3 cbr 210 ------- 1 2.0 3.0 42 44
- 0.07056 2 3 cbr 210 ------- 1 2.0 3.0 42 44
r 0.070608 2 3 cbr 210 ------- 1 2.0 3.0 33 35
+ 0.07224 2 3 cbr 210 ------- 1 2.0 3.0 43 45
- 0.07224 2 3 cbr 210 ------- 1 2.0 3.0 43 45
r 0.072288 2 3 cbr 210 ------- 1 2.0 3.0 34 36
+ 0.07392 2 3 cbr 210 ------- 1 2.0 3.0 44 46
- 0.07392 2 3 cbr 210 ------- 1 2.0 3.0 44 46
r 0.073968 2 3 cbr 210 ------- 1 2.0 3.0 35 37
r 0.07516 3 2 ack 40 ------- 2 4.0 0.0 0 28
+ 0.07516 2 0 ack 40 ------- 2 4.0 0.0 0 28
- 0.07516 2 0 ack 40 ------- 2 4.0 0.0 0 28
+ 0.0756 2 3 cbr 210 ------- 1 2.0 3.0 45 47
- 0.0756 2 3 cbr 210 ------- 1 2.0 3.0 45 47
r 0.075648 2 3 cbr 210 ------- 1 2.0 3.0 36 38
+ 0.07728 2 3 cbr 210 ------- 1 2.0 3.0 46 48
- 0.07728 2 3 cbr 210 ------- 1 2.0 3.0 46 48
r 0.077328 2 3 cbr 210 ------- 1 2.0 3.0 37 39
+ 0.07896 2 3 cbr 210 ------- 1 2.0 3.0 47 49
- 0.07896 2 3 cbr 210 ------- 1 2.0 3.0 47 49
r 0.079008 2 3 cbr 210 ------- 1 2.0 3.0 38 40
+ 0.08064 2 3 cbr 210 ------- 1 2.0 3.0 48 50
- 0.08064 2 3 cbr 210 ------- 1 2.0 3.0 48 50
r 0.080688 2 3 cbr 210 ------- 1 2.0 3.0 39 41
+ 0.08232 2 3 cbr 210 ------- 1 2.0 3.0 49 51
- 0.08232 2 3 cbr 210 ------- 1 2.0 3.0 49 51
r 0.082368 2 3 cbr 210 ------- 1 2.0 3.0 40 42
+ 0.084 2 3 cbr 210 ------- 1 2.0 3.0 50 52
- 0.084 2 3 cbr 210 ------- 1 2.0 3.0 50 52
r 0.084048 2 3 cbr 210 ------- 1 2.0 3.0 41 43
+ 0.08568 2 3 cbr 210 ------- 1 2.0 3.0 51 53
- 0.08568 2 3 cbr 210 ------- 1 2.0 3.0 51 53
r 0.085728 2 3 cbr 210 ------- 1 2.0 3.0 42 44
+ 0.08736 2 3 cbr 210 ------- 1 2.0 3.0 52 54
- 0.08736 2 3 cbr 210 ------- 1 2.0 3.0 52 54
r 0.087408 2 3 cbr 210 ------- 1 2.0 3.0 43 45
+ 0.08904 2 3 cbr 210 ------- 1 2.0 3.0 53 55
- 0.08904 2 3 cbr 210 ------- 1 2.0 3.0 53 55
r 0.089088 2 3 cbr 210 ------- 1 2.0 3.0 44 46
r 0.090192 2 0 ack 40 ------- 2 4.0 0.0 0 28
+ 0.090192 0 2 tcp 1040 ------- 2 0.0 4.0 1 56
- 0.090192 0 2 tcp 1040 ------- 2 0.0 4.0 1 56
+ 0.090192 0 2 tcp 1040 ------- 2 0.0 4.0 2 57
+ 0.09072 2 3 cbr 210 ------- 1 2.0 3.0 54 58
- 0.09072 2 3 cbr 210 ------- 1 2.0 3.0 54 58
r 0.090768 2 3 cbr 210 ------- 1 2.0 3.0 45 47
- 0.091024 0 2 tcp 1040 ------- 2 0.0 4.0 2 57
+ 0.0924 2 3 cbr 210 ------- 1 2.0 3.0 55 59
- 0.0924 2 3 cbr 210 ------- 1 2.0 3.0 55 59
r 0.092448 2 3 cbr 210 ------- 1 2.0 3.0 46 48
+ 0.09408 2 3 cbr 210 ------- 1 2.0 3.0 56 60
- 0.09408 2 3 cbr 210 ------- 1 2.0 3.0 56 60
r 0.094128 2 3 cbr 210 ------- 1 2.0 3.0 47 49
+ 0.09576 2 3 cbr 210 ------- 1 2.0 3.0 57 61
- 0.09576 2 3 cbr 210 ------- 1 2.0 3.0 57 61
r 0.095808 2 3 cbr 210 ------- 1 2.0 3.0 48 50
+ 0.09744 2 3 cbr 210 ------- 1 2.0 3.0 58 62
- 0.09744 2 3 cbr 210 ------- 1 2.0 3.0 58 62
r 0.097488 2 3 cbr 210 ------- 1 2.0 3.0 49 51
+ 0.09912 2 3 cbr 210 ------- 1 2.0 3.0 59 63
- 0.09912 2 3 cbr 210 ------- 1 2.0 3.0 59 63
r 0.099168 2 3 cbr 210 ------- 1 2.0 3.0 50 52
+ 0.1008 2 3 cbr 210 ------- 1 2.0 3.0 60 64
- 0.1008 2 3 cbr 210 ------- 1 2.0 3.0 60 64
r 0.100848 2 3 cbr 210 ------- 1 2.0 3.0 51 53
+ 0.10248 2 3 cbr 210 ------- 1 2.0 3.0 61 65
- 0.10248 2 3 cbr 210 ------- 1 2.0 3.0 61 65
r 0.102528 2 3 cbr 210 ------- 1 2.0 3.0 52 54
+ 0.10416 2 3 cbr 210 ------- 1 2.0 3.0 62 66
- 0.10416 2 3 cbr 210 ------- 1 2.0 3.0 62 66
r 0.104208 2 3 cbr 210 ------- 1 2.0 3.0 53 55
+ 0.10584 2 3 cbr 210 ------- 1 2.0 3.0 63 67
- 0.10584 2 3 cbr 210 ------- 1 2.0 3.0 63 67
r 0.105888 2 3 cbr 210 ------- 1 2.0 3.0 54 58
r 0.106024 0 2 tcp 1040 ------- 2 0.0 4.0 1 56
+ 0.106024 2 3 tcp 1040 ------- 2 0.0 4.0 1 56
- 0.106024 2 3 tcp 1040 ------- 2 0.0 4.0 1 56
r 0.106856 0 2 tcp 1040 ------- 2 0.0 4.0 2 57
+ 0.106856 2 3 tcp 1040 ------- 2 0.0 4.0 2 57
- 0.106856 2 3 tcp 1040 ------- 2 0.0 4.0 2 57
+ 0.10752 2 3 cbr 210 ------- 1 2.0 3.0 64 68
r 0.107568 2 3 cbr 210 ------- 1 2.0 3.0 55 59
- 0.107688 2 3 cbr 210 ------- 1 2.0 3.0 64 68
+ 0.1092 2 3 cbr 210 ------- 1 2.0 3.0 65 69
- 0.1092 2 3 cbr 210 ------- 1 2.0 3.0 65 69
r 0.109248 2 3 cbr 210 ------- 1 2.0 3.0 56 60
+ 0.11088 2 3 cbr 210 ------- 1 2.0 3.0 66 70
- 0.11088 2 3 cbr 210 ------- 1 2.0 3.0 66 70
r 0.110928 2 3 cbr 210 ------- 1 2.0 3.0 57 61
+ 0.11256 2 3 cbr 210 ------- 1 2.0 3.0 67 71
- 0.11256 2 3 cbr 210 ------- 1 2.0 3.0 67 71
r 0.112608 2 3 cbr 210 ------- 1 2.0 3.0 58 62
+ 0.11424 2 3 cbr 210 ------- 1 2.0 3.0 68 72
- 0.11424 2 3 cbr 210 ------- 1 2.0 3.0 68 72
r 0.114288 2 3 cbr 210 ------- 1 2.0 3.0 59 63
+ 0.11592 2 3 cbr 210 ------- 1 2.0 3.0 69 73
- 0.11592 2 3 cbr 210 ------- 1 2.0 3.0 69 73
r 0.115968 2 3 cbr 210 ------- 1 2.0 3.0 60 64
+ 0.1176 2 3 cbr 210 ------- 1 2.0 3.0 70 74
- 0.1176 2 3 cbr 210 ------- 1 2.0 3.0 70 74
r 0.117648 2 3 cbr 210 ------- 1 2.0 3.0 61 65
+ 0.11928 2 3 cbr 210 ------- 1 2.0 3.0 71 75
- 0.11928 2 3 cbr 210 ------- 1 2.0 3.0 71 75
r 0.119328 2 3 cbr 210 ------- 1 2.0 3.0 62 66
+ 0.12096 2 3 cbr 210 ------- 1 2.0 3.0 72 76
- 0.12096 2 3 cbr 210 ------- 1 2.0 3.0 72 76
r 0.121008 2 3 cbr 210 ------- 1 2.0 3.0 63 67
r 0.121856 2 3 tcp 1040 ------- 2 0.0 4.0 1 56
+ 0.121856 3 4 tcp 1040 ------- 2 0.0 4.0 1 56
- 0.121856 3 4 tcp 1040 ------- 2 0.0 4.0 1 56
+ 0.12264 2 3 cbr 210 ------- 1 2.0 3.0 73 77
- 0.12264 2 3 cbr 210 ------- 1 2.0 3.0 73 77
r 0.122688 2 3 tcp 1040 ------- 2 0.0 4.0 2 57
+ 0.122688 3 4 tcp 1040 ------- 2 0.0 4.0 2 57
- 0.122688 3 4 tcp 1040 ------- 2 0.0 4.0 2 57
r 0.122856 2 3 cbr 210 ------- 1 2.0 3.0 64 68
+ 0.12432 2 3 cbr 210 ------- 1 2.0 3.0 74 78
- 0.12432 2 3 cbr 210 ------- 1 2.0 3.0 74 78
r 0.124368 2 3 cbr 210 ------- 1 2.0 3.0 65 69
+ 0.126 2 3 cbr 210 ------- 1 2.0 3.0 75 79
- 0.126 2 3 cbr 210 ------- 1 2.0 3.0 75 79
r 0.126048 2 3 cbr 210 ------- 1 2.0 3.0 66 70
+ 0.12768 2 3 cbr 210 ------- 1 2.0 3.0 76 80
- 0.12768 2 3 cbr 210 ------- 1 2.0 3.0 76 80
r 0.127728 2 3 cbr 210 ------- 1 2.0 3.0 67 71
+ 0.12936 2 3 cbr 210 ------- 1 2.0 3.0 77 81
- 0.12936 2 3 cbr 210 ------- 1 2.0 3.0 77 81
r 0.129408 2 3 cbr 210 ------- 1 2.0 3.0 68 72
+ 0.13104 2 3 cbr 210 ------- 1 2.0 3.0 78 82
- 0.13104 2 3 cbr 210 ------- 1 2.0 3.0 78 82
r 0.131088 2 3 cbr 210 ------- 1 2.0 3.0 69 73
+ 0.13272 2 3 cbr 210 ------- 1 2.0 3.0 79 83
- 0.13272 2 3 cbr 210 ------- 1 2.0 3.0 79 83
r 0.132768 2 3 cbr 210 ------- 1 2.0 3.0 70 74
+ 0.1344 2 3 cbr 210 ------- 1 2.0 3.0 80 84
- 0.1344 2 3 cbr 210 ------- 1 2.0 3.0 80 84
r 0.134448 2 3 cbr 210 ------- 1 2.0 3.0 71 75
+ 0.13608 2 3 cbr 210 ------- 1 2.0 3.0 81 85
- 0.13608 2 3 cbr 210 ------- 1 2.0 3.0 81 85
r 0.136128 2 3 cbr 210 ------- 1 2.0 3.0 72 76
r 0.137688 3 4 tcp 1040 ------- 2 0.0 4.0 1 56
+ 0.137688 4 3 ack 40 ------- 2 4.0 0.0 1 86
- 0.137688 4 3 ack 40 ------- 2 4.0 0.0 1 86
+ 0.13776 2 3 cbr 210 ------- 1 2.0 3.0 82 87
- 0.13776 2 3 cbr 210 ------- 1 2.0 3.0 82 87
r 0.137808 2 3 cbr 210 ------- 1 2.0 3.0 73 77
r 0.13852 3 4 tcp 1040 ------- 2 0.0 4.0 2 57
+ 0.13852 4 3 ack 40 ------- 2 4.0 0.0 2 88
- 0.13852 4 3 ack 40 ------- 2 4.0 0.0 2 88
+ 0.13944 2 3 cbr 210 ------- 1 2.0 3.0 83 89
- 0.13944 2 3 cbr 210 ------- 1 2.0 3.0 83 89
r 0.139488 2 3 cbr 210 ------- 1 2.0 3.0 74 78
+ 0.14112 2 3 cbr 210 ------- 1 2.0 3.0 84 90
- 0.14112 2 3 cbr 210 ------- 1 2.0 3.0 84 90
r 0.141168 2 3 cbr 210 ------- 1 2.0 3.0 75 79
+ 0.1428 2 3 cbr 210 ------- 1 2.0 3.0 85 91
- 0.1428 2 3 cbr 210 ------- 1 2.0 3.0 85 91
r 0.142848 2 3 cbr 210 ------- 1 2.0 3.0 76 80
+ 0.14448 2 3 cbr 210 ------- 1 2.0 3.0 86 92
- 0.14448 2 3 cbr 210 ------- 1 2.0 3.0 86 92
r 0.144528 2 3 cbr 210 ------- 1 2.0 3.0 77 81
+ 0.14616 2 3 cbr 210 ------- 1 2.0 3.0 87 93
- 0.14616 2 3 cbr 210 ------- 1 2.0 3.0 87 93
r 0.146208 2 3 cbr 210 ------- 1 2.0 3.0 78 82
+ 0.14784 2 3 cbr 210 ------- 1 2.0 3.0 88 94
- 0.14784 2 3 cbr 210 ------- 1 2.0 3.0 88 94
r 0.147888 2 3 cbr 210 ------- 1 2.0 3.0 79 83
+ 0.14952 2 3 cbr 210 ------- 1 2.0 3.0 89 95
- 0.14952 2 3 cbr 210 ------- 1 2.0 3.0 89 95
r 0.149568 2 3 cbr 210 ------- 1 2.0 3.0 80 84
+ 0.1512 2 3 cbr 210 ------- 1 2.0 3.0 90 96
- 0.1512 2 3 cbr 210 ------- 1 2.0 3.0 90 96
r 0.151248 2 3 cbr 210 ------- 1 2.0 3.0 81 85
r 0.15272 4 3 ack 40 ------- 2 4.0 0.0 1 86
+ 0.15272 3 2 ack 40 ------- 2 4.0 0.0 1 86
- 0.15272 3 2 ack 40 ------- 2 4.0 0.0 1 86
+ 0.15288 2 3 cbr 210 ------- 1 2.0 3.0 91 97
- 0.15288 2 3 cbr 210 ------- 1 2.0 3.0 91 97
r 0.152928 2 3 cbr 210 ------- 1 2.0 3.0 82 87
r 0.153552 4 3 ack 40 ------- 2 4.0 0.0 2 88
+ 0.153552 3 2 ack 40 ------- 2 4.0 0.0 2 88
- 0.153552 3 2 ack 40 ------- 2 4.0 0.0 2 88
+ 0.15456 2 3 cbr 210 ------- 1 2.0 3.0 92 98
- 0.15456 2 3 cbr 210 ------- 1 2.0 3.0 92 98
r 0.154608 2 3 cbr 210 ------- 1 2.0 3.0 83 89
+ 0.15624 2 3 cbr 210 ------- 1 2.0 3.0 93 99
- 0.15624 2 3 cbr 210 ------- 1 2.0 3.0 93 99
r 0.156288 2 3 cbr 210 ------- 1 2.0 3.0 84 90
+ 0.15792 2 3 cbr 210 ------- 1 2.0 3.0 94 100
- 0.15792 2 3 cbr 210 ------- 1 2.0 3.0 94 100
r 0.157968 2 3 cbr 210 ------- 1 2.0 3.0 85 91
+ 0.1596 2 3 cbr 210 ------- 1 2.0 3.0 95 101
- 0.1596 2 3 cbr 210 ------- 1 2.0 3.0 95 101
r 0.159648 2 3 cbr 210 ------- 1 2.0 3.0 86 92
+ 0.16128 2 3 cbr 210 ------- 1 2.0 3.0 96 102
- 0.16128 2 3 cbr 210 ------- 1 2.0 3.0 96 102
r 0.161328 2 3 cbr 210 ------- 1 2.0 3.0 87 93
+ 0.16296 2 3 cbr 210 ------- 1 2.0 3.0 97 103
- 0.16296 2 3 cbr 210 ------- 1 2.0 3.0 97 103
r 0.163008 2 3 cbr 210 ------- 1 2.0 3.0 88 94
+ 0.16464 2 3 cbr 210 ------- 1 2.0 3.0 98 104
- 0.16464 2 3 cbr 210 ------- 1 2.0 3.0 98 104
r 0.164688 2 3 cbr 210 ------- 1 2.0 3.0 89 95
+ 0.16632 2 3 cbr 210 ------- 1 2.0 3.0 99 105
- 0.16632 2 3 cbr 210 ------- 1 2.0 3.0 99 105
r 0.166368 2 3 cbr 210 ------- 1 2.0 3.0 90 96
r 0.167752 3 2 ack 40 ------- 2 4.0 0.0 1 86
+ 0.167752 2 0 ack 40 ------- 2 4.0 0.0 1 86
- 0.167752 2 0 ack 40 ------- 2 4.0 0.0 1 86
+ 0.168 2 3 cbr 210 ------- 1 2.0 3.0 100 106
- 0.168 2 3 cbr 210 ------- 1 2.0 3.0 100 106
r 0.168048 2 3 cbr 210 ------- 1 2.0 3.0 91 97
r 0.168584 3 2 ack 40 ------- 2 4.0 0.0 2 88
+ 0.168584 2 0 ack 40 ------- 2 4.0 0.0 2 88
- 0.168584 2 0 ack 40 ------- 2 4.0 0.0 2 88
+ 0.16968 2 3 cbr 210 ------- 1 2.0 3.0 101 107
- 0.16968 2 3 cbr 210 ------- 1 2.0 3.0 101 107
r 0.169728 2 3 cbr 210 ------- 1 2.0 3.0 92 98
+ 0.17136 2 3 cbr 210 ------- 1 2.0 3.0 102 108
- 0.17136 2 3 cbr 210 ------- 1 2.0 3.0 102 108
r 0.171408 2 3 cbr 210 ------- 1 2.0 3.0 93 99
+ 0.17304 2 3 cbr 210 ------- 1 2.0 3.0 103 109
- 0.17304 2 3 cbr 210 ------- 1 2.0 3.0 103 109
r 0.173088 2 3 cbr 210 ------- 1 2.0 3.0 94 100
+ 0.17472 2 3 cbr 210 ------- 1 2.0 3.0 104 110
- 0.17472 2 3 cbr 210 ------- 1 2.0 3.0 104 110
r 0.174768 2 3 cbr 210 ------- 1 2.0 3.0 95 101
+ 0.1764 2 3 cbr 210 ------- 1 2.0 3.0 105 111
- 0.1764 2 3 cbr 210 ------- 1 2.0 3.0 105 111
r 0.176448 2 3 cbr 210 ------- 1 2.0 3.0 96 102
+ 0.17808 2 3 cbr 210 ------- 1 2.0 3.0 106 112
- 0.17808 2 3 cbr 210 ------- 1 2.0 3.0 106 112
r 0.178128 2 3 cbr 210 ------- 1 2.0 3.0 97 103
+ 0.17976 2 3 cbr 210 ------- 1 2.0 3.0 107 113
- 0.17976 2 3 cbr 210 ------- 1 2.0 3.0 107 113
r 0.179808 2 3 cbr 210 ------- 1 2.0 3.0 98 104
+ 0.18144 2 3 cbr 210 ------- 1 2.0 3.0 108 114
- 0.18144 2 3 cbr 210 ------- 1 2.0 3.0 108 114
r 0.181488 2 3 cbr 210 ------- 1 2.0 3.0 99 105
r 0.182784 2 0 ack 40 ------- 2 4.0 0.0 1 86
+ 0.182784 0 2 tcp 1040 ------- 2 0.0 4.0 3 115
- 0.182784 0 2 tcp 1040 ------- 2 0.0 4.0 3 115
+ 0.182784 0 2 tcp 1040 ------- 2 0.0 4.0 4 116
+ 0.18312 2 3 cbr 210 ------- 1 2.0 3.0 109 117
- 0.18312 2 3 cbr 210 ------- 1 2.0 3.0 109 117
r 0.183168 2 3 cbr 210 ------- 1 2.0 3.0 100 106
r 0.183616 2 0 ack 40 ------- 2 4.0 0.0 2 88
+ 0.183616 0 2 tcp 1040 ------- 2 0.0 4.0 5 118
+ 0.183616 0 2 tcp 1040 ------- 2 0.0 4.0 6 119
- 0.183616 0 2 tcp 1040 ------- 2 0.0 4.0 4 116
- 0.184448 0 2 tcp 1040 ------- 2 0.0 4.0 5 118
+ 0.1848 2 3 cbr 210 ------- 1 2.0 3.0 110 120
- 0.1848 2 3 cbr 210 ------- 1 2.0 3.0 110 120
r 0.184848 2 3 cbr 210 ------- 1 2.0 3.0 101 107
- 0.18528 0 2 tcp 1040 ------- 2 0.0 4.0 6 119
+ 0.18648 2 3 cbr 210 ------- 1 2.0 3.0 111 121
- 0.18648 2 3 cbr 210 ------- 1 2.0 3.0 111 121
r 0.186528 2 3 cbr 210 ------- 1 2.0 3.0 102 108
+ 0.18816 2 3 cbr 210 ------- 1 2.0 3.0 112 122
- 0.18816 2 3 cbr 210 ------- 1 2.0 3.0 112 122
r 0.188208 2 3 cbr 210 ------- 1 2.0 3.0 103 109
+ 0.18984 2 3 cbr 210 ------- 1 2.0 3.0 113 123
- 0.18984 2 3 cbr 210 ------- 1 2.0 3.0 113 123
r 0.189888 2 3 cbr 210 ------- 1 2.0 3.0 104 110
+ 0.19152 2 3 cbr 210 ------- 1 2.0 3.0 114 124
- 0.19152 2 3 cbr 210 ------- 1 2.0 3.0 114 124
r 0.191568 2 3 cbr 210 ------- 1 2.0 3.0 105 111
+ 0.1932 2 3 cbr 210 ------- 1 2.0 3.0 115 125
- 0.1932 2 3 cbr 210 ------- 1 2.0 3.0 115 125
r 0.193248 2 3 cbr 210 ------- 1 2.0 3.0 106 112
+ 0.19488 2 3 cbr 210 ------- 1 2.0 3.0 116 126
- 0.19488 2 3 cbr 210 ------- 1 2.0 3.0 116 126
r 0.194928 2 3 cbr 210 ------- 1 2.0 3.0 107 113
+ 0.19656 2 3 cbr 210 ------- 1 2.0 3.0 117 127
- 0.19656 2 3 cbr 210 ------- 1 2.0 3.0 117 127
r 0.196608 2 3 cbr 210 ------- 1 2.0 3.0 108 114
+ 0.19824 2 3 cbr 210 ------- 1 2.0 3.0 118 128
- 0.19824 2 3 cbr 210 ------- 1 2.0 3.0 118 128
r 0.198288 2 3 cbr 210 ------- 1 2.0 3.0 109 117
r 0.198616 0 2 tcp 1040 ------- 2 0.0 4.0 3 115
+ 0.198616 2 3 tcp 1040 ------- 2 0.0 4.0 3 115
- 0.198616 2 3 tcp 1040 ------- 2 0.0 4.0 3 115
r 0.199448 0 2 tcp 1040 ------- 2 0.0 4.0 4 116
+ 0.199448 2 3 tcp 1040 ------- 2 0.0 4.0 4 116
- 0.199448 2 3 tcp 1040 ------- 2 0.0 4.0 4 116
+ 0.19992 2 3 cbr 210 ------- 1 2.0 3.0 119 129
r 0.199968 2 3 cbr 210 ------- 1 2.0 3.0 110 120
r 0.20028 0 2 tcp 1040 ------- 2 0.0 4.0 5 118
+ 0.20028 2 3 tcp 1040 ------- 2 0.0 4.0 5 118
- 0.20028 2 3 cbr 210 ------- 1 2.0 3.0 119 129
- 0.200448 2 3 tcp 1040 ------- 2 0.0 4.0 5 118
r 0.201112 0 2 tcp 1040 ------- 2 0.0 4.0 6 119
+ 0.201112 2 3 tcp 1040 ------- 2 0.0 4.0 6 119
- 0.20128 2 3 tcp 1040 ------- 2 0.0 4.0 6 119
+ 0.2016 2 3 cbr 210 ------- 1 2.0 3.0 120 130
r 0.201648 2 3 cbr 210 ------- 1 2.0 3.0 111 121
- 0.202112 2 3 cbr 210 ------- 1 2.0 3.0 120 130
+ 0.20328 2 3 cbr 210 ------- 1 2.0 3.0 121 131
- 0.20328 2 3 cbr 210 ------- 1 2.0 3.0 121 131
r 0.203328 2 3 cbr 210 ------- 1 2.0 3.0 112 122
+ 0.20496 2 3 cbr 210 ------- 1 2.0 3.0 122 132
- 0.20496 2 3 cbr 210 ------- 1 2.0 3.0 122 132
r 0.205008 2 3 cbr 210 ------- 1 2.0 3.0 113 123
+ 0.20664 2 3 cbr 210 ------- 1 2.0 3.0 123 133
- 0.20664 2 3 cbr 210 ------- 1 2.0 3.0 123 133
r 0.206688 2 3 cbr 210 ------- 1 2.0 3.0 114 124
+ 0.20832 2 3 cbr 210 ------- 1 2.0 3.0 124 134
- 0.20832 2 3 cbr 210 ------- 1 2.0 3.0 124 134
r 0.208368 2 3 cbr 210 ------- 1 2.0 3.0 115 125
+ 0.21 2 3 cbr 210 ------- 1 2.0 3.0 125 135
- 0.21 2 3 cbr 210 ------- 1 2.0 3.0 125 135
r 0.210048 2 3 cbr 210 ------- 1 2.0 3.0 116 126
+ 0.21168 2 3 cbr 210 ------- 1 2.0 3.0 126 136
- 0.21168 2 3 cbr 210 ------- 1 2.0 3.0 126 136
r 0.211728 2 3 cbr 210 ------- 1 2.0 3.0 117 127
+ 0.21336 2 3 cbr 210 ------- 1 2.0 3.0 127 137
- 0.21336 2 3 cbr 210 ------- 1 2.0 3.0 127 137
r 0.213408 2 3 cbr 210 ------- 1 2.0 3.0 118 128
r 0.214448 2 3 tcp 1040 ------- 2 0.0 4.0 3 115
+ 0.214448 3 4 tcp 1040 ------- 2 0.0 4.0 3 115
- 0.214448 3 4 tcp 1040 ------- 2 0.0 4.0 3 115
+ 0.21504 2 3 cbr 210 ------- 1 2.0 3.0 128 138
- 0.21504 2 3 cbr 210 ------- 1 2.0 3.0 128 138
r 0.21528 2 3 tcp 1040 ------- 2 0.0 4.0 4 116
+ 0.21528 3 4 tcp 1040 ------- 2 0.0 4.0 4 116
- 0.21528 3 4 tcp 1040 ------- 2 0.0 4.0 4 116
r 0.215448 2 3 cbr 210 ------- 1 2.0 3.0 119 129
r 0.21628 2 3 tcp 1040 ------- 2 0.0 4.0 5 118
+ 0.21628 3 4 tcp 1040 ------- 2 0.0 4.0 5 118
- 0.21628 3 4 tcp 1040 ------- 2 0.0 4.0 5 118
+ 0.21672 2 3 cbr 210 ------- 1 2.0 3.0 129 139
- 0.21672 2 3 cbr 210 ------- 1 2.0 3.0 129 139
r 0.217112 2 3 tcp 1040 ------- 2 0.0 4.0 6 119
+ 0.217112 3 4 tcp 1040 ------- 2 0.0 4.0 6 119
- 0.217112 3 4 tcp 1040 ------- 2 0.0 4.0 6 119
r 0.21728 2 3 cbr 210 ------- 1 2.0 3.0 120 130
+ 0.2184 2 3 cbr 210 ------- 1 2.0 3.0 130 140
- 0.2184 2 3 cbr 210 ------- 1 2.0 3.0 130 140
r 0.218448 2 3 cbr 210 ------- 1 2.0 3.0 121 131
+ 0.22008 2 3 cbr 210 ------- 1 2.0 3.0 131 141
- 0.22008 2 3 cbr 210 ------- 1 2.0 3.0 131 141
r 0.220128 2 3 cbr 210 ------- 1 2.0 3.0 122 132
+ 0.22176 2 3 cbr 210 ------- 1 2.0 3.0 132 142
- 0.22176 2 3 cbr 210 ------- 1 2.0 3.0 132 142
r 0.221808 2 3 cbr 210 ------- 1 2.0 3.0 123 133
+ 0.22344 2 3 cbr 210 ------- 1 2.0 3.0 133 143
- 0.22344 2 3 cbr 210 ------- 1 2.0 3.0 133 143
r 0.223488 2 3 cbr 210 ------- 1 2.0 3.0 124 134
+ 0.22512 2 3 cbr 210 ------- 1 2.0 3.0 134 144
- 0.22512 2 3 cbr 210 ------- 1 2.0 3.0 134 144
r 0.225168 2 3 cbr 210 ------- 1 2.0 3.0 125 135
+ 0.2268 2 3 cbr 210 ------- 1 2.0 3.0 135 145
- 0.2268 2 3 cbr 210 ------- 1 2.0 3.0 135 145
r 0.226848 2 3 cbr 210 ------- 1 2.0 3.0 126 136
+ 0.22848 2 3 cbr 210 ------- 1 2.0 3.0 136 146
- 0.22848 2 3 cbr 210 ------- 1 2.0 3.0 136 146
r 0.228528 2 3 cbr 210 ------- 1 2.0 3.0 127 137
+ 0.23016 2 3 cbr 210 ------- 1 2.0 3.0 137 147
- 0.23016 2 3 cbr 210 ------- 1 2.0 3.0 137 147
r 0.230208 2 3 cbr 210 ------- 1 2.0 3.0 128 138
r 0.23028 3 4 tcp 1040 ------- 2 0.0 4.0 3 115
+ 0.23028 4 3 ack 40 ------- 2 4.0 0.0 3 148
- 0.23028 4 3 ack 40 ------- 2 4.0 0.0 3 148
r 0.231112 3 4 tcp 1040 ------- 2 0.0 4.0 4 116
+ 0.231112 4 3 ack 40 ------- 2 4.0 0.0 4 149
- 0.231112 4 3 ack 40 ------- 2 4.0 0.0 4 149
+ 0.23184 2 3 cbr 210 ------- 1 2.0 3.0 138 150
- 0.23184 2 3 cbr 210 ------- 1 2.0 3.0 138 150
r 0.231888 2 3 cbr 210 ------- 1 2.0 3.0 129 139
r 0.232112 3 4 tcp 1040 ------- 2 0.0 4.0 5 118
+ 0.232112 4 3 ack 40 ------- 2 4.0 0.0 5 151
- 0.232112 4 3 ack 40 ------- 2 4.0 0.0 5 151
r 0.232944 3 4 tcp 1040 ------- 2 0.0 4.0 6 119
+ 0.232944 4 3 ack 40 ------- 2 4.0 0.0 6 152
- 0.232944 4 3 ack 40 ------- 2 4.0 0.0 6 152
+ 0.23352 2 3 cbr 210 ------- 1 2.0 3.0 139 153
- 0.23352 2 3 cbr 210 ------- 1 2.0 3.0 139 153
r 0.233568 2 3 cbr 210 ------- 1 2.0 3.0 130 140
+ 0.2352 2 3 cbr 210 ------- 1 2.0 3.0 140 154
- 0.2352 2 3 cbr 210 ------- 1 2.0 3.0 140 154
r 0.235248 2 3 cbr 210 ------- 1 2.0 3.0 131 141
+ 0.23688 2 3 cbr 210 ------- 1 2.0 3.0 141 155
- 0.23688 2 3 cbr 210 ------- 1 2.0 3.0 141 155
r 0.236928 2 3 cbr 210 ------- 1 2.0 3.0 132 142
+ 0.23856 2 3 cbr 210 ------- 1 2.0 3.0 142 156
- 0.23856 2 3 cbr 210 ------- 1 2.0 3.0 142 156
r 0.238608 2 3 cbr 210 ------- 1 2.0 3.0 133 143
+ 0.24024 2 3 cbr 210 ------- 1 2.0 3.0 143 157
- 0.24024 2 3 cbr 210 ------- 1 2.0 3.0 143 157
r 0.240288 2 3 cbr 210 ------- 1 2.0 3.0 134 144
+ 0.24192 2 3 cbr 210 ------- 1 2.0 3.0 144 158
- 0.24192 2 3 cbr 210 ------- 1 2.0 3.0 144 158
r 0.241968 2 3 cbr 210 ------- 1 2.0 3.0 135 145
+ 0.2436 2 3 cbr 210 ------- 1 2.0 3.0 145 159
- 0.2436 2 3 cbr 210 ------- 1 2.0 3.0 145 159
r 0.243648 2 3 cbr 210 ------- 1 2.0 3.0 136 146
+ 0.24528 2 3 cbr 210 ------- 1 2.0 3.0 146 160
- 0.24528 2 3 cbr 210 ------- 1 2.0 3.0 146 160
r 0.245312 4 3 ack 40 ------- 2 4.0 0.0 3 148
+ 0.245312 3 2 ack 40 ------- 2 4.0 0.0 3 148
- 0.245312 3 2 ack 40 ------- 2 4.0 0.0 3 148
r 0.245328 2 3 cbr 210 ------- 1 2.0 3.0 137 147
r 0.246144 4 3 ack 40 ------- 2 4.0 0.0 4 149
+ 0.246144 3 2 ack 40 ------- 2 4.0 0.0 4 149
- 0.246144 3 2 ack 40 ------- 2 4.0 0.0 4 149
+ 0.24696 2 3 cbr 210 ------- 1 2.0 3.0 147 161
- 0.24696 2 3 cbr 210 ------- 1 2.0 3.0 147 161
r 0.247008 2 3 cbr 210 ------- 1 2.0 3.0 138 150
r 0.247144 4 3 ack 40 ------- 2 4.0 0.0 5 151
+ 0.247144 3 2 ack 40 ------- 2 4.0 0.0 5 151
- 0.247144 3 2 ack 40 ------- 2 4.0 0.0 5 151
r 0.247976 4 3 ack 40 ------- 2 4.0 0.0 6 152
+ 0.247976 3 2 ack 40 ------- 2 4.0 0.0 6 152
- 0.247976 3 2 ack 40 ------- 2 4.0 0.0 6 152
+ 0.24864 2 3 cbr 210 ------- 1 2.0 3.0 148 162
- 0.24864 2 3 cbr 210 ------- 1 2.0 3.0 148 162
r 0.248688 2 3 cbr 210 ------- 1 2.0 3.0 139 153
+ 0.25032 2 3 cbr 210 ------- 1 2.0 3.0 149 163
- 0.25032 2 3 cbr 210 ------- 1 2.0 3.0 149 163
r 0.250368 2 3 cbr 210 ------- 1 2.0 3.0 140 154
+ 0.252 2 3 cbr 210 ------- 1 2.0 3.0 150 164
- 0.252 2 3 cbr 210 ------- 1 2.0 3.0 150 164
r 0.252048 2 3 cbr 210 ------- 1 2.0 3.0 141 155
+ 0.25368 2 3 cbr 210 ------- 1 2.0 3.0 151 165
- 0.25368 2 3 cbr 210 ------- 1 2.0 3.0 151 165
r 0.253728 2 3 cbr 210 ------- 1 2.0 3.0 142 156
+ 0.25536 2 3 cbr 210 ------- 1 2.0 3.0 152 166
- 0.25536 2 3 cbr 210 ------- 1 2.0 3.0 152 166
r 0.255408 2 3 cbr 210 ------- 1 2.0 3.0 143 157
+ 0.25704 2 3 cbr 210 ------- 1 2.0 3.0 153 167
- 0.25704 2 3 cbr 210 ------- 1 2.0 3.0 153 167
r 0.257088 2 3 cbr 210 ------- 1 2.0 3.0 144 158
+ 0.25872 2 3 cbr 210 ------- 1 2.0 3.0 154 168
- 0.25872 2 3 cbr 210 ------- 1 2.0 3.0 154 168
r 0.258768 2 3 cbr 210 ------- 1 2.0 3.0 145 159
r 0.260344 3 2 ack 40 ------- 2 4.0 0.0 3 148
+ 0.260344 2 0 ack 40 ------- 2 4.0 0.0 3 148
- 0.260344 2 0 ack 40 ------- 2 4.0 0.0 3 148
+ 0.2604 2 3 cbr 210 ------- 1 2.0 3.0 155 169
- 0.2604 2 3 cbr 210 ------- 1 2.0 3.0 155 169
r 0.260448 2 3 cbr 210 ------- 1 2.0 3.0 146 160
r 0.261176 3 2 ack 40 ------- 2 4.0 0.0 4 149
+ 0.261176 2 0 ack 40 ------- 2 4.0 0.0 4 149
- 0.261176 2 0 ack 40 ------- 2 4.0 0.0 4 149
+ 0.26208 2 3 cbr 210 ------- 1 2.0 3.0 156 170
- 0.26208 2 3 cbr 210 ------- 1 2.0 3.0 156 170
r 0.262128 2 3 cbr 210 ------- 1 2.0 3.0 147 161
r 0.262176 3 2 ack 40 ------- 2 4.0 0.0 5 151
+ 0.262176 2 0 ack 40 ------- 2 4.0 0.0 5 151
- 0.262176 2 0 ack 40 ------- 2 4.0 0.0 5 151
r 0.263008 3 2 ack 40 ------- 2 4.0 0.0 6 152
+ 0.263008 2 0 ack 40 ------- 2 4.0 0.0 6 152
- 0.263008 2 0 ack 40 ------- 2 4.0 0.0 6 152
+ 0.26376 2 3 cbr 210 ------- 1 2.0 3.0 157 171
- 0.26376 2 3 cbr 210 ------- 1 2.0 3.0 157 171
r 0.263808 2 3 cbr 210 ------- 1 2.0 3.0 148 162
+ 0.26544 2 3 cbr 210 ------- 1 2.0 3.0 158 172
- 0.26544 2 3 cbr 210 ------- 1 2.0 3.0 158 172
r 0.265488 2 3 cbr 210 ------- 1 2.0 3.0 149 163
+ 0.26712 2 3 cbr 210 ------- 1 2.0 3.0 159 173
- 0.26712 2 3 cbr 210 ------- 1 2.0 3.0 159 173
r 0.267168 2 3 cbr 210 ------- 1 2.0 3.0 150 164
+ 0.2688 2 3 cbr 210 ------- 1 2.0 3.0 160 174
- 0.2688 2 3 cbr 210 ------- 1 2.0 3.0 160 174
r 0.268848 2 3 cbr 210 ------- 1 2.0 3.0 151 165
+ 0.27048 2 3 cbr 210 ------- 1 2.0 3.0 161 175
- 0.27048 2 3 cbr 210 ------- 1 2.0 3.0 161 175
r 0.270528 2 3 cbr 210 ------- 1 2.0 3.0 152 166
+ 0.27216 2 3 cbr 210 ------- 1 2.0 3.0 162 176
- 0.27216 2 3 cbr 210 ------- 1 2.0 3.0 162 176
r 0.272208 2 3 cbr 210 ------- 1 2.0 3.0 153 167
+ 0.27384 2 3 cbr 210 ------- 1 2.0 3.0 163 177
- 0.27384 2 3 cbr 210 ------- 1 2.0 3.0 163 177
r 0.273888 2 3 cbr 210 ------- 1 2.0 3.0 154 168
r 0.275376 2 0 ack 40 ------- 2 4.0 0.0 3 148
+ 0.275376 0 2 tcp 1040 ------- 2 0.0 4.0 7 178
- 0.275376 0 2 tcp 1040 ------- 2 0.0 4.0 7 178
+ 0.275376 0 2 tcp 1040 ------- 2 0.0 4.0 8 179
+ 0.27552 2 3 cbr 210 ------- 1 2.0 3.0 164 180
- 0.27552 2 3 cbr 210 ------- 1 2.0 3.0 164 180
r 0.275568 2 3 cbr 210 ------- 1 2.0 3.0 155 169
r 0.276208 2 0 ack 40 ------- 2 4.0 0.0 4 149
+ 0.276208 0 2 tcp 1040 ------- 2 0.0 4.0 9 181
+ 0.276208 0 2 tcp 1040 ------- 2 0.0 4.0 10 182
- 0.276208 0 2 tcp 1040 ------- 2 0.0 4.0 8 179
- 0.27704 0 2 tcp 1040 ------- 2 0.0 4.0 9 181
+ 0.2772 2 3 cbr 210 ------- 1 2.0 3.0 165 183
- 0.2772 2 3 cbr 210 ------- 1 2.0 3.0 165 183
r 0.277208 2 0 ack 40 ------- 2 4.0 0.0 5 151
+ 0.277208 0 2 tcp 1040 ------- 2 0.0 4.0 11 184
+ 0.277208 0 2 tcp 1040 ------- 2 0.0 4.0 12 185
r 0.277248 2 3 cbr 210 ------- 1 2.0 3.0 156 170
- 0.277872 0 2 tcp 1040 ------- 2 0.0 4.0 10 182
r 0.27804 2 0 ack 40 ------- 2 4.0 0.0 6 152
+ 0.27804 0 2 tcp 1040 ------- 2 0.0 4.0 13 186
+ 0.27804 0 2 tcp 1040 ------- 2 0.0 4.0 14 187
- 0.278704 0 2 tcp 1040 ------- 2 0.0 4.0 11 184
+ 0.27888 2 3 cbr 210 ------- 1 2.0 3.0 166 188
- 0.27888 2 3 cbr 210 ------- 1 2.0 3.0 166 188
r 0.278928 2 3 cbr 210 ------- 1 2.0 3.0 157 171
- 0.279536 0 2 tcp 1040 ------- 2 0.0 4.0 12 185
- 0.280368 0 2 tcp 1040 ------- 2 0.0 4.0 13 186
+ 0.28056 2 3 cbr 210 ------- 1 2.0 3.0 167 189
- 0.28056 2 3 cbr 210 ------- 1 2.0 3.0 167 189
r 0.280608 2 3 cbr 210 ------- 1 2.0 3.0 158 172
- 0.2812 0 2 tcp 1040 ------- 2 0.0 4.0 14 187
+ 0.28224 2 3 cbr 210 ------- 1 2.0 3.0 168 190
- 0.28224 2 3 cbr 210 ------- 1 2.0 3.0 168 190
r 0.282288 2 3 cbr 210 ------- 1 2.0 3.0 159 173
+ 0.28392 2 3 cbr 210 ------- 1 2.0 3.0 169 191