+ 0.1 1 2 cbr 1000 ------- 1 1.0 2.0 0 0
- 0.1 1 2 cbr 1000 ------- 1 1.0 2.0 0 0
+ 0.101143 1 2 cbr 1000 ------- 1 1.0 2.0 1 1
- 0.101143 1 2 cbr 1000 ------- 1 1.0 2.0 1 1
+ 0.102286 1 2 cbr 1000 ------- 1 1.0 2.0 2 2
- 0.102286 1 2 cbr 1000 ------- 1 1.0 2.0 2 2
+ 0.103429 1 2 cbr 1000 ------- 1 1.0 2.0 3 3
- 0.103429 1 2 cbr 1000 ------- 1 1.0 2.0 3 3
+ 0.104571 1 2 cbr 1000 ------- 1 1.0 2.0 4 4
- 0.104571 1 2 cbr 1000 ------- 1 1.0 2.0 4 4
+ 0.105714 1 2 cbr 1000 ------- 1 1.0 2.0 5 5
- 0.105714 1 2 cbr 1000 ------- 1 1.0 2.0 5 5
+ 0.106857 1 2 cbr 1000 ------- 1 1.0 2.0 6 6
- 0.106857 1 2 cbr 1000 ------- 1 1.0 2.0 6 6
+ 0.108 1 2 cbr 1000 ------- 1 1.0 2.0 7 7
- 0.108 1 2 cbr 1000 ------- 1 1.0 2.0 7 7
+ 0.109143 1 2 cbr 1000 ------- 1 1.0 2.0 8 8
- 0.109143 1 2 cbr 1000 ------- 1 1.0 2.0 8 8
+ 0.110286 1 2 cbr 1000 ------- 1 1.0 2.0 9 9
- 0.110286 1 2 cbr 1000 ------- 1 1.0 2.0 9 9
+ 0.111429 1 2 cbr 1000 ------- 1 1.0 2.0 10 10
- 0.111429 1 2 cbr 1000 ------- 1 1.0 2.0 10 10
+ 0.112571 1 2 cbr 1000 ------- 1 1.0 2.0 11 11
- 0.112571 1 2 cbr 1000 ------- 1 1.0 2.0 11 11
r 0.1128 1 2 cbr 1000 ------- 1 1.0 2.0 0 0
+ 0.113714 1 2 cbr 1000 ------- 1 1.0 2.0 12 12
- 0.113714 1 2 cbr 1000 ------- 1 1.0 2.0 12 12
r 0.113943 1 2 cbr 1000 ------- 1 1.0 2.0 1 1
+ 0.114857 1 2 cbr 1000 ------- 1 1.0 2.0 13 13
- 0.114857 1 2 cbr 1000 ------- 1 1.0 2.0 13 13
r 0.115086 1 2 cbr 1000 ------- 1 1.0 2.0 2 2
+ 0.116 1 2 cbr 1000 ------- 1 1.0 2.0 14 14
- 0.116 1 2 cbr 1000 ------- 1 1.0 2.0 14 14
r 0.116229 1 2 cbr 1000 ------- 1 1.0 2.0 3 3
+ 0.117143 1 2 cbr 1000 ------- 1 1.0 2.0 15 15
- 0.117143 1 2 cbr 1000 ------- 1 1.0 2.0 15 15
r 0.117371 1 2 cbr 1000 ------- 1 1.0 2.0 4 4
+ 0.118286 1 2 cbr 1000 ------- 1 1.0 2.0 16 16
- 0.118286 1 2 cbr 1000 ------- 1 1.0 2.0 16 16
r 0.118514 1 2 cbr 1000 ------- 1 1.0 2.0 5 5
+ 0.119429 1 2 cbr 1000 ------- 1 1.0 2.0 17 17
- 0.119429 1 2 cbr 1000 ------- 1 1.0 2.0 17 17
r 0.119657 1 2 cbr 1000 ------- 1 1.0 2.0 6 6
+ 0.120571 1 2 cbr 1000 ------- 1 1.0 2.0 18 18
- 0.120571 1 2 cbr 1000 ------- 1 1.0 2.0 18 18
r 0.1208 1 2 cbr 1000 ------- 1 1.0 2.0 7 7
+ 0.121714 1 2 cbr 1000 ------- 1 1.0 2.0 19 19
- 0.121714 1 2 cbr 1000 ------- 1 1.0 2.0 19 19
r 0.121943 1 2 cbr 1000 ------- 1 1.0 2.0 8 8
+ 0.122857 1 2 cbr 1000 ------- 1 1.0 2.0 20 20
- 0.122857 1 2 cbr 1000 ------- 1 1.0 2.0 20 20
r 0.123086 1 2 cbr 1000 ------- 1 1.0 2.0 9 9
+ 0.124 1 2 cbr 1000 ------- 1 1.0 2.0 21 21
- 0.124 1 2 cbr 1000 ------- 1 1.0 2.0 21 21
r 0.124229 1 2 cbr 1000 ------- 1 1.0 2.0 10 10
+ 0.125143 1 2 cbr 1000 ------- 1 1.0 2.0 22 22
- 0.125143 1 2 cbr 1000 ------- 1 1.0 2.0 22 22
r 0.125371 1 2 cbr 1000 ------- 1 1.0 2.0 11 11
+ 0.126286 1 2 cbr 1000 ------- 1 1.0 2.0 23 23
- 0.126286 1 2 cbr 1000 ------- 1 1.0 2.0 23 23
r 0.126514 1 2 cbr 1000 ------- 1 1.0 2.0 12 12
+ 0.127429 1 2 cbr 1000 ------- 1 1.0 2.0 24 24
- 0.127429 1 2 cbr 1000 ------- 1 1.0 2.0 24 24
r 0.127657 1 2 cbr 1000 ------- 1 1.0 2.0 13 13
+ 0.128571 1 2 cbr 1000 ------- 1 1.0 2.0 25 25
- 0.128571 1 2 cbr 1000 ------- 1 1.0 2.0 25 25
r 0.1288 1 2 cbr 1000 ------- 1 1.0 2.0 14 14
+ 0.129714 1 2 cbr 1000 ------- 1 1.0 2.0 26 26
- 0.129714 1 2 cbr 1000 ------- 1 1.0 2.0 26 26
r 0.129943 1 2 cbr 1000 ------- 1 1.0 2.0 15 15
+ 0.130857 1 2 cbr 1000 ------- 1 1.0 2.0 27 27
- 0.130857 1 2 cbr 1000 ------- 1 1.0 2.0 27 27
r 0.131086 1 2 cbr 1000 ------- 1 1.0 2.0 16 16
+ 0.132 1 2 cbr 1000 ------- 1 1.0 2.0 28 28
- 0.132 1 2 cbr 1000 ------- 1 1.0 2.0 28 28
r 0.132229 1 2 cbr 1000 ------- 1 1.0 2.0 17 17
+ 0.133143 1 2 cbr 1000 ------- 1 1.0 2.0 29 29
- 0.133143 1 2 cbr 1000 ------- 1 1.0 2.0 29 29
r 0.133371 1 2 cbr 1000 ------- 1 1.0 2.0 18 18
+ 0.134286 1 2 cbr 1000 ------- 1 1.0 2.0 30 30
- 0.134286 1 2 cbr 1000 ------- 1 1.0 2.0 30 30
r 0.134514 1 2 cbr 1000 ------- 1 1.0 2.0 19 19
+ 0.135429 1 2 cbr 1000 ------- 1 1.0 2.0 31 31
- 0.135429 1 2 cbr 1000 ------- 1 1.0 2.0 31 31
r 0.135657 1 2 cbr 1000 ------- 1 1.0 2.0 20 20
+ 0.136571 1 2 cbr 1000 ------- 1 1.0 2.0 32 32
- 0.136571 1 2 cbr 1000 ------- 1 1.0 2.0 32 32
r 0.1368 1 2 cbr 1000 ------- 1 1.0 2.0 21 21
+ 0.137714 1 2 cbr 1000 ------- 1 1.0 2.0 33 33
- 0.137714 1 2 cbr 1000 ------- 1 1.0 2.0 33 33
r 0.137943 1 2 cbr 1000 ------- 1 1.0 2.0 22 22
+ 0.138857 1 2 cbr 1000 ------- 1 1.0 2.0 34 34
- 0.138857 1 2 cbr 1000 ------- 1 1.0 2.0 34 34
r 0.139086 1 2 cbr 1000 ------- 1 1.0 2.0 23 23
+ 0.14 1 2 cbr 1000 ------- 1 1.0 2.0 35 35
- 0.14 1 2 cbr 1000 ------- 1 1.0 2.0 35 35
r 0.140229 1 2 cbr 1000 ------- 1 1.0 2.0 24 24
+ 0.141143 1 2 cbr 1000 ------- 1 1.0 2.0 36 36
- 0.141143 1 2 cbr 1000 ------- 1 1.0 2.0 36 36
r 0.141371 1 2 cbr 1000 ------- 1 1.0 2.0 25 25
+ 0.142286 1 2 cbr 1000 ------- 1 1.0 2.0 37 37
- 0.142286 1 2 cbr 1000 ------- 1 1.0 2.0 37 37
r 0.142514 1 2 cbr 1000 ------- 1 1.0 2.0 26 26
+ 0.143429 1 2 cbr 1000 ------- 1 1.0 2.0 38 38
- 0.143429 1 2 cbr 1000 ------- 1 1.0 2.0 38 38
r 0.143657 1 2 cbr 1000 ------- 1 1.0 2.0 27 27
+ 0.144571 1 2 cbr 1000 ------- 1 1.0 2.0 39 39
- 0.144571 1 2 cbr 1000 ------- 1 1.0 2.0 39 39
r 0.1448 1 2 cbr 1000 ------- 1 1.0 2.0 28 28
+ 0.145714 1 2 cbr 1000 ------- 1 1.0 2.0 40 40
- 0.145714 1 2 cbr 1000 ------- 1 1.0 2.0 40 40
r 0.145943 1 2 cbr 1000 ------- 1 1.0 2.0 29 29
+ 0.146857 1 2 cbr 1000 ------- 1 1.0 2.0 41 41
- 0.146857 1 2 cbr 1000 ------- 1 1.0 2.0 41 41
r 0.147086 1 2 cbr 1000 ------- 1 1.0 2.0 30 30
+ 0.148 1 2 cbr 1000 ------- 1 1.0 2.0 42 42
- 0.148 1 2 cbr 1000 ------- 1 1.0 2.0 42 42
r 0.148229 1 2 cbr 1000 ------- 1 1.0 2.0 31 31
+ 0.149143 1 2 cbr 1000 ------- 1 1.0 2.0 43 43
- 0.149143 1 2 cbr 1000 ------- 1 1.0 2.0 43 43
r 0.149371 1 2 cbr 1000 ------- 1 1.0 2.0 32 32
+ 0.150286 1 2 cbr 1000 ------- 1 1.0 2.0 44 44
- 0.150286 1 2 cbr 1000 ------- 1 1.0 2.0 44 44
r 0.150514 1 2 cbr 1000 ------- 1 1.0 2.0 33 33
+ 0.151429 1 2 cbr 1000 ------- 1 1.0 2.0 45 45
- 0.151429 1 2 cbr 1000 ------- 1 1.0 2.0 45 45
r 0.151657 1 2 cbr 1000 ------- 1 1.0 2.0 34 34
+ 0.152571 1 2 cbr 1000 ------- 1 1.0 2.0 46 46
- 0.152571 1 2 cbr 1000 ------- 1 1.0 2.0 46 46
r 0.1528 1 2 cbr 1000 ------- 1 1.0 2.0 35 35
+ 0.153714 1 2 cbr 1000 ------- 1 1.0 2.0 47 47
- 0.153714 1 2 cbr 1000 ------- 1 1.0 2.0 47 47
r 0.153943 1 2 cbr 1000 ------- 1 1.0 2.0 36 36
+ 0.154857 1 2 cbr 1000 ------- 1 1.0 2.0 48 48
- 0.154857 1 2 cbr 1000 ------- 1 1.0 2.0 48 48
r 0.155086 1 2 cbr 1000 ------- 1 1.0 2.0 37 37
+ 0.156 1 2 cbr 1000 ------- 1 1.0 2.0 49 49
- 0.156 1 2 cbr 1000 ------- 1 1.0 2.0 49 49
r 0.156229 1 2 cbr 1000 ------- 1 1.0 2.0 38 38
+ 0.157143 1 2 cbr 1000 ------- 1 1.0 2.0 50 50
- 0.157143 1 2 cbr 1000 ------- 1 1.0 2.0 50 50
r 0.157371 1 2 cbr 1000 ------- 1 1.0 2.0 39 39
+ 0.158286 1 2 cbr 1000 ------- 1 1.0 2.0 51 51
- 0.158286 1 2 cbr 1000 ------- 1 1.0 2.0 51 51
r 0.158514 1 2 cbr 1000 ------- 1 1.0 2.0 40 40
+ 0.159429 1 2 cbr 1000 ------- 1 1.0 2.0 52 52
- 0.159429 1 2 cbr 1000 ------- 1 1.0 2.0 52 52
r 0.159657 1 2 cbr 1000 ------- 1 1.0 2.0 41 41
+ 0.160571 1 2 cbr 1000 ------- 1 1.0 2.0 53 53
- 0.160571 1 2 cbr 1000 ------- 1 1.0 2.0 53 53
r 0.1608 1 2 cbr 1000 ------- 1 1.0 2.0 42 42
+ 0.161714 1 2 cbr 1000 ------- 1 1.0 2.0 54 54
- 0.161714 1 2 cbr 1000 ------- 1 1.0 2.0 54 54
r 0.161943 1 2 cbr 1000 ------- 1 1.0 2.0 43 43
+ 0.162857 1 2 cbr 1000 ------- 1 1.0 2.0 55 55
- 0.162857 1 2 cbr 1000 ------- 1 1.0 2.0 55 55
r 0.163086 1 2 cbr 1000 ------- 1 1.0 2.0 44 44
+ 0.164 1 2 cbr 1000 ------- 1 1.0 2.0 56 56
- 0.164 1 2 cbr 1000 ------- 1 1.0 2.0 56 56
r 0.164229 1 2 cbr 1000 ------- 1 1.0 2.0 45 45
+ 0.165143 1 2 cbr 1000 ------- 1 1.0 2.0 57 57
- 0.165143 1 2 cbr 1000 ------- 1 1.0 2.0 57 57
r 0.165371 1 2 cbr 1000 ------- 1 1.0 2.0 46 46
+ 0.166286 1 2 cbr 1000 ------- 1 1.0 2.0 58 58
- 0.166286 1 2 cbr 1000 ------- 1 1.0 2.0 58 58
r 0.166514 1 2 cbr 1000 ------- 1 1.0 2.0 47 47
+ 0.167429 1 2 cbr 1000 ------- 1 1.0 2.0 59 59
- 0.167429 1 2 cbr 1000 ------- 1 1.0 2.0 59 59
r 0.167657 1 2 cbr 1000 ------- 1 1.0 2.0 48 48
+ 0.168571 1 2 cbr 1000 ------- 1 1.0 2.0 60 60
- 0.168571 1 2 cbr 1000 ------- 1 1.0 2.0 60 60
r 0.1688 1 2 cbr 1000 ------- 1 1.0 2.0 49 49
+ 0.169714 1 2 cbr 1000 ------- 1 1.0 2.0 61 61
- 0.169714 1 2 cbr 1000 ------- 1 1.0 2.0 61 61
r 0.169943 1 2 cbr 1000 ------- 1 1.0 2.0 50 50
+ 0.170857 1 2 cbr 1000 ------- 1 1.0 2.0 62 62
- 0.170857 1 2 cbr 1000 ------- 1 1.0 2.0 62 62
r 0.171086 1 2 cbr 1000 ------- 1 1.0 2.0 51 51
+ 0.172 1 2 cbr 1000 ------- 1 1.0 2.0 63 63
- 0.172 1 2 cbr 1000 ------- 1 1.0 2.0 63 63
r 0.172229 1 2 cbr 1000 ------- 1 1.0 2.0 52 52
+ 0.173143 1 2 cbr 1000 ------- 1 1.0 2.0 64 64
- 0.173143 1 2 cbr 1000 ------- 1 1.0 2.0 64 64
r 0.173371 1 2 cbr 1000 ------- 1 1.0 2.0 53 53
+ 0.174286 1 2 cbr 1000 ------- 1 1.0 2.0 65 65
- 0.174286 1 2 cbr 1000 ------- 1 1.0 2.0 65 65
r 0.174514 1 2 cbr 1000 ------- 1 1.0 2.0 54 54
+ 0.175429 1 2 cbr 1000 ------- 1 1.0 2.0 66 66
- 0.175429 1 2 cbr 1000 ------- 1 1.0 2.0 66 66
r 0.175657 1 2 cbr 1000 ------- 1 1.0 2.0 55 55
+ 0.176571 1 2 cbr 1000 ------- 1 1.0 2.0 67 67
- 0.176571 1 2 cbr 1000 ------- 1 1.0 2.0 67 67
r 0.1768 1 2 cbr 1000 ------- 1 1.0 2.0 56 56
+ 0.177714 1 2 cbr 1000 ------- 1 1.0 2.0 68 68
- 0.177714 1 2 cbr 1000 ------- 1 1.0 2.0 68 68
r 0.177943 1 2 cbr 1000 ------- 1 1.0 2.0 57 57
+ 0.178857 1 2 cbr 1000 ------- 1 1.0 2.0 69 69
- 0.178857 1 2 cbr 1000 ------- 1 1.0 2.0 69 69
r 0.179086 1 2 cbr 1000 ------- 1 1.0 2.0 58 58
+ 0.18 1 2 cbr 1000 ------- 1 1.0 2.0 70 70
- 0.18 1 2 cbr 1000 ------- 1 1.0 2.0 70 70
r 0.180229 1 2 cbr 1000 ------- 1 1.0 2.0 59 59
+ 0.181143 1 2 cbr 1000 ------- 1 1.0 2.0 71 71
- 0.181143 1 2 cbr 1000 ------- 1 1.0 2.0 71 71
r 0.181371 1 2 cbr 1000 ------- 1 1.0 2.0 60 60
+ 0.182286 1 2 cbr 1000 ------- 1 1.0 2.0 72 72
- 0.182286 1 2 cbr 1000 ------- 1 1.0 2.0 72 72
r 0.182514 1 2 cbr 1000 ------- 1 1.0 2.0 61 61
+ 0.183429 1 2 cbr 1000 ------- 1 1.0 2.0 73 73
- 0.183429 1 2 cbr 1000 ------- 1 1.0 2.0 73 73
r 0.183657 1 2 cbr 1000 ------- 1 1.0 2.0 62 62
+ 0.184571 1 2 cbr 1000 ------- 1 1.0 2.0 74 74
- 0.184571 1 2 cbr 1000 ------- 1 1.0 2.0 74 74
r 0.1848 1 2 cbr 1000 ------- 1 1.0 2.0 63 63
+ 0.185714 1 2 cbr 1000 ------- 1 1.0 2.0 75 75
- 0.185714 1 2 cbr 1000 ------- 1 1.0 2.0 75 75
r 0.185943 1 2 cbr 1000 ------- 1 1.0 2.0 64 64
+ 0.186857 1 2 cbr 1000 ------- 1 1.0 2.0 76 76
- 0.186857 1 2 cbr 1000 ------- 1 1.0 2.0 76 76
r 0.187086 1 2 cbr 1000 ------- 1 1.0 2.0 65 65
+ 0.188 1 2 cbr 1000 ------- 1 1.0 2.0 77 77
- 0.188 1 2 cbr 1000 ------- 1 1.0 2.0 77 77
r 0.188229 1 2 cbr 1000 ------- 1 1.0 2.0 66 66
+ 0.189143 1 2 cbr 1000 ------- 1 1.0 2.0 78 78
- 0.189143 1 2 cbr 1000 ------- 1 1.0 2.0 78 78
r 0.189371 1 2 cbr 1000 ------- 1 1.0 2.0 67 67
+ 0.190286 1 2 cbr 1000 ------- 1 1.0 2.0 79 79
- 0.190286 1 2 cbr 1000 ------- 1 1.0 2.0 79 79
r 0.190514 1 2 cbr 1000 ------- 1 1.0 2.0 68 68
+ 0.191429 1 2 cbr 1000 ------- 1 1.0 2.0 80 80
- 0.191429 1 2 cbr 1000 ------- 1 1.0 2.0 80 80
r 0.191657 1 2 cbr 1000 ------- 1 1.0 2.0 69 69
+ 0.192571 1 2 cbr 1000 ------- 1 1.0 2.0 81 81
- 0.192571 1 2 cbr 1000 ------- 1 1.0 2.0 81 81
r 0.1928 1 2 cbr 1000 ------- 1 1.0 2.0 70 70
+ 0.193714 1 2 cbr 1000 ------- 1 1.0 2.0 82 82
- 0.193714 1 2 cbr 1000 ------- 1 1.0 2.0 82 82
r 0.193943 1 2 cbr 1000 ------- 1 1.0 2.0 71 71
+ 0.194857 1 2 cbr 1000 ------- 1 1.0 2.0 83 83
- 0.194857 1 2 cbr 1000 ------- 1 1.0 2.0 83 83
r 0.195086 1 2 cbr 1000 ------- 1 1.0 2.0 72 72
+ 0.196 1 2 cbr 1000 ------- 1 1.0 2.0 84 84
- 0.196 1 2 cbr 1000 ------- 1 1.0 2.0 84 84
r 0.196229 1 2 cbr 1000 ------- 1 1.0 2.0 73 73
+ 0.197143 1 2 cbr 1000 ------- 1 1.0 2.0 85 85
- 0.197143 1 2 cbr 1000 ------- 1 1.0 2.0 85 85
r 0.197371 1 2 cbr 1000 ------- 1 1.0 2.0 74 74
+ 0.198286 1 2 cbr 1000 ------- 1 1.0 2.0 86 86
- 0.198286 1 2 cbr 1000 ------- 1 1.0 2.0 86 86
r 0.198514 1 2 cbr 1000 ------- 1 1.0 2.0 75 75
+ 0.199429 1 2 cbr 1000 ------- 1 1.0 2.0 87 87
- 0.199429 1 2 cbr 1000 ------- 1 1.0 2.0 87 87
r 0.199657 1 2 cbr 1000 ------- 1 1.0 2.0 76 76
+ 0.200571 1 2 cbr 1000 ------- 1 1.0 2.0 88 88
- 0.200571 1 2 cbr 1000 ------- 1 1.0 2.0 88 88
r 0.2008 1 2 cbr 1000 ------- 1 1.0 2.0 77 77
+ 0.201714 1 2 cbr 1000 ------- 1 1.0 2.0 89 89
- 0.201714 1 2 cbr 1000 ------- 1 1.0 2.0 89 89
r 0.201943 1 2 cbr 1000 ------- 1 1.0 2.0 78 78
+ 0.202857 1 2 cbr 1000 ------- 1 1.0 2.0 90 90
- 0.202857 1 2 cbr 1000 ------- 1 1.0 2.0 90 90
r 0.203086 1 2 cbr 1000 ------- 1 1.0 2.0 79 79
+ 0.204 1 2 cbr 1000 ------- 1 1.0 2.0 91 91
- 0.204 1 2 cbr 1000 ------- 1 1.0 2.0 91 91
r 0.204229 1 2 cbr 1000 ------- 1 1.0 2.0 80 80
+ 0.205143 1 2 cbr 1000 ------- 1 1.0 2.0 92 92
- 0.205143 1 2 cbr 1000 ------- 1 1.0 2.0 92 92
r 0.205371 1 2 cbr 1000 ------- 1 1.0 2.0 81 81
+ 0.206286 1 2 cbr 1000 ------- 1 1.0 2.0 93 93
- 0.206286 1 2 cbr 1000 ------- 1 1.0 2.0 93 93
r 0.206514 1 2 cbr 1000 ------- 1 1.0 2.0 82 82
+ 0.207429 1 2 cbr 1000 ------- 1 1.0 2.0 94 94
- 0.207429 1 2 cbr 1000 ------- 1 1.0 2.0 94 94
r 0.207657 1 2 cbr 1000 ------- 1 1.0 2.0 83 83
+ 0.208571 1 2 cbr 1000 ------- 1 1.0 2.0 95 95
- 0.208571 1 2 cbr 1000 ------- 1 1.0 2.0 95 95
r 0.2088 1 2 cbr 1000 ------- 1 1.0 2.0 84 84
+ 0.209714 1 2 cbr 1000 ------- 1 1.0 2.0 96 96
- 0.209714 1 2 cbr 1000 ------- 1 1.0 2.0 96 96
r 0.209943 1 2 cbr 1000 ------- 1 1.0 2.0 85 85
+ 0.210857 1 2 cbr 1000 ------- 1 1.0 2.0 97 97
- 0.210857 1 2 cbr 1000 ------- 1 1.0 2.0 97 97
r 0.211086 1 2 cbr 1000 ------- 1 1.0 2.0 86 86
+ 0.212 1 2 cbr 1000 ------- 1 1.0 2.0 98 98
- 0.212 1 2 cbr 1000 ------- 1 1.0 2.0 98 98
r 0.212229 1 2 cbr 1000 ------- 1 1.0 2.0 87 87
+ 0.213143 1 2 cbr 1000 ------- 1 1.0 2.0 99 99
- 0.213143 1 2 cbr 1000 ------- 1 1.0 2.0 99 99
r 0.213371 1 2 cbr 1000 ------- 1 1.0 2.0 88 88
+ 0.214286 1 2 cbr 1000 ------- 1 1.0 2.0 100 100
- 0.214286 1 2 cbr 1000 ------- 1 1.0 2.0 100 100
r 0.214514 1 2 cbr 1000 ------- 1 1.0 2.0 89 89
+ 0.215429 1 2 cbr 1000 ------- 1 1.0 2.0 101 101
- 0.215429 1 2 cbr 1000 ------- 1 1.0 2.0 101 101
r 0.215657 1 2 cbr 1000 ------- 1 1.0 2.0 90 90
+ 0.216571 1 2 cbr 1000 ------- 1 1.0 2.0 102 102
- 0.216571 1 2 cbr 1000 ------- 1 1.0 2.0 102 102
r 0.2168 1 2 cbr 1000 ------- 1 1.0 2.0 91 91
+ 0.217714 1 2 cbr 1000 ------- 1 1.0 2.0 103 103
- 0.217714 1 2 cbr 1000 ------- 1 1.0 2.0 103 103
r 0.217943 1 2 cbr 1000 ------- 1 1.0 2.0 92 92
+ 0.218857 1 2 cbr 1000 ------- 1 1.0 2.0 104 104
- 0.218857 1 2 cbr 1000 ------- 1 1.0 2.0 104 104
r 0.219086 1 2 cbr 1000 ------- 1 1.0 2.0 93 93
+ 0.22 1 2 cbr 1000 ------- 1 1.0 2.0 105 105
- 0.22 1 2 cbr 1000 ------- 1 1.0 2.0 105 105
r 0.220229 1 2 cbr 1000 ------- 1 1.0 2.0 94 94
+ 0.221143 1 2 cbr 1000 ------- 1 1.0 2.0 106 106
- 0.221143 1 2 cbr 1000 ------- 1 1.0 2.0 106 106
r 0.221371 1 2 cbr 1000 ------- 1 1.0 2.0 95 95
+ 0.222286 1 2 cbr 1000 ------- 1 1.0 2.0 107 107
- 0.222286 1 2 cbr 1000 ------- 1 1.0 2.0 107 107
r 0.222514 1 2 cbr 1000 ------- 1 1.0 2.0 96 96
+ 0.223429 1 2 cbr 1000 ------- 1 1.0 2.0 108 108
- 0.223429 1 2 cbr 1000 ------- 1 1.0 2.0 108 108
r 0.223657 1 2 cbr 1000 ------- 1 1.0 2.0 97 97
+ 0.224571 1 2 cbr 1000 ------- 1 1.0 2.0 109 109
- 0.224571 1 2 cbr 1000 ------- 1 1.0 2.0 109 109
r 0.2248 1 2 cbr 1000 ------- 1 1.0 2.0 98 98
+ 0.225714 1 2 cbr 1000 ------- 1 1.0 2.0 110 110
- 0.225714 1 2 cbr 1000 ------- 1 1.0 2.0 110 110
r 0.225943 1 2 cbr 1000 ------- 1 1.0 2.0 99 99
+ 0.226857 1 2 cbr 1000 ------- 1 1.0 2.0 111 111
- 0.226857 1 2 cbr 1000 ------- 1 1.0 2.0 111 111
r 0.227086 1 2 cbr 1000 ------- 1 1.0 2.0 100 100
+ 0.228 1 2 cbr 1000 ------- 1 1.0 2.0 112 112
- 0.228 1 2 cbr 1000 ------- 1 1.0 2.0 112 112
r 0.228229 1 2 cbr 1000 ------- 1 1.0 2.0 101 101
+ 0.229143 1 2 cbr 1000 ------- 1 1.0 2.0 113 113
- 0.229143 1 2 cbr 1000 ------- 1 1.0 2.0 113 113
r 0.229371 1 2 cbr 1000 ------- 1 1.0 2.0 102 102
+ 0.230286 1 2 cbr 1000 ------- 1 1.0 2.0 114 114
- 0.230286 1 2 cbr 1000 ------- 1 1.0 2.0 114 114
r 0.230514 1 2 cbr 1000 ------- 1 1.0 2.0 103 103
+ 0.231429 1 2 cbr 1000 ------- 1 1.0 2.0 115 115
- 0.231429 1 2 cbr 1000 ------- 1 1.0 2.0 115 115
r 0.231657 1 2 cbr 1000 ------- 1 1.0 2.0 104 104
+ 0.232571 1 2 cbr 1000 ------- 1 1.0 2.0 116 116
- 0.232571 1 2 cbr 1000 ------- 1 1.0 2.0 116 116
r 0.2328 1 2 cbr 1000 ------- 1 1.0 2.0 105 105
+ 0.233714 1 2 cbr 1000 ------- 1 1.0 2.0 117 117
- 0.233714 1 2 cbr 1000 ------- 1 1.0 2.0 117 117
r 0.233943 1 2 cbr 1000 ------- 1 1.0 2.0 106 106
+ 0.234857 1 2 cbr 1000 ------- 1 1.0 2.0 118 118
- 0.234857 1 2 cbr 1000 ------- 1 1.0 2.0 118 118
r 0.235086 1 2 cbr 1000 ------- 1 1.0 2.0 107 107
+ 0.236 1 2 cbr 1000 ------- 1 1.0 2.0 119 119
- 0.236 1 2 cbr 1000 ------- 1 1.0 2.0 119 119
r 0.236229 1 2 cbr 1000 ------- 1 1.0 2.0 108 108
+ 0.237143 1 2 cbr 1000 ------- 1 1.0 2.0 120 120
- 0.237143 1 2 cbr 1000 ------- 1 1.0 2.0 120 120
r 0.237371 1 2 cbr 1000 ------- 1 1.0 2.0 109 109
+ 0.238286 1 2 cbr 1000 ------- 1 1.0 2.0 121 121
- 0.238286 1 2 cbr 1000 ------- 1 1.0 2.0 121 121
r 0.238514 1 2 cbr 1000 ------- 1 1.0 2.0 110 110
+ 0.239429 1 2 cbr 1000 ------- 1 1.0 2.0 122 122
- 0.239429 1 2 cbr 1000 ------- 1 1.0 2.0 122 122
r 0.239657 1 2 cbr 1000 ------- 1 1.0 2.0 111 111
+ 0.240571 1 2 cbr 1000 ------- 1 1.0 2.0 123 123
- 0.240571 1 2 cbr 1000 ------- 1 1.0 2.0 123 123
r 0.2408 1 2 cbr 1000 ------- 1 1.0 2.0 112 112
+ 0.241714 1 2 cbr 1000 ------- 1 1.0 2.0 124 124
- 0.241714 1 2 cbr 1000 ------- 1 1.0 2.0 124 124
r 0.241943 1 2 cbr 1000 ------- 1 1.0 2.0 113 113
+ 0.242857 1 2 cbr 1000 ------- 1 1.0 2.0 125 125
- 0.242857 1 2 cbr 1000 ------- 1 1.0 2.0 125 125
r 0.243086 1 2 cbr 1000 ------- 1 1.0 2.0 114 114
+ 0.244 1 2 cbr 1000 ------- 1 1.0 2.0 126 126
- 0.244 1 2 cbr 1000 ------- 1 1.0 2.0 126 126
r 0.244229 1 2 cbr 1000 ------- 1 1.0 2.0 115 115
+ 0.245143 1 2 cbr 1000 ------- 1 1.0 2.0 127 127
- 0.245143 1 2 cbr 1000 ------- 1 1.0 2.0 127 127
r 0.245371 1 2 cbr 1000 ------- 1 1.0 2.0 116 116
+ 0.246286 1 2 cbr 1000 ------- 1 1.0 2.0 128 128
- 0.246286 1 2 cbr 1000 ------- 1 1.0 2.0 128 128
r 0.246514 1 2 cbr 1000 ------- 1 1.0 2.0 117 117
+ 0.247429 1 2 cbr 1000 ------- 1 1.0 2.0 129 129
- 0.247429 1 2 cbr 1000 ------- 1 1.0 2.0 129 129
r 0.247657 1 2 cbr 1000 ------- 1 1.0 2.0 118 118
+ 0.248571 1 2 cbr 1000 ------- 1 1.0 2.0 130 130
- 0.248571 1 2 cbr 1000 ------- 1 1.0 2.0 130 130
r 0.2488 1 2 cbr 1000 ------- 1 1.0 2.0 119 119
+ 0.249714 1 2 cbr 1000 ------- 1 1.0 2.0 131 131
- 0.249714 1 2 cbr 1000 ------- 1 1.0 2.0 131 131
r 0.249943 1 2 cbr 1000 ------- 1 1.0 2.0 120 120
+ 0.250857 1 2 cbr 1000 ------- 1 1.0 2.0 132 132
- 0.250857 1 2 cbr 1000 ------- 1 1.0 2.0 132 132
r 0.251086 1 2 cbr 1000 ------- 1 1.0 2.0 121 121
+ 0.252 1 2 cbr 1000 ------- 1 1.0 2.0 133 133
- 0.252 1 2 cbr 1000 ------- 1 1.0 2.0 133 133
r 0.252229 1 2 cbr 1000 ------- 1 1.0 2.0 122 122
+ 0.253143 1 2 cbr 1000 ------- 1 1.0 2.0 134 134
- 0.253143 1 2 cbr 1000 ------- 1 1.0 2.0 134 134
r 0.253371 1 2 cbr 1000 ------- 1 1.0 2.0 123 123
+ 0.254286 1 2 cbr 1000 ------- 1 1.0 2.0 135 135
- 0.254286 1 2 cbr 1000 ------- 1 1.0 2.0 135 135
r 0.254514 1 2 cbr 1000 ------- 1 1.0 2.0 124 124
+ 0.255429 1 2 cbr 1000 ------- 1 1.0 2.0 136 136
- 0.255429 1 2 cbr 1000 ------- 1 1.0 2.0 136 136
r 0.255657 1 2 cbr 1000 ------- 1 1.0 2.0 125 125
+ 0.256571 1 2 cbr 1000 ------- 1 1.0 2.0 137 137
- 0.256571 1 2 cbr 1000 ------- 1 1.0 2.0 137 137
r 0.2568 1 2 cbr 1000 ------- 1 1.0 2.0 126 126
+ 0.257714 1 2 cbr 1000 ------- 1 1.0 2.0 138 138
- 0.257714 1 2 cbr 1000 ------- 1 1.0 2.0 138 138
r 0.257943 1 2 cbr 1000 ------- 1 1.0 2.0 127 127
+ 0.258857 1 2 cbr 1000 ------- 1 1.0 2.0 139 139
- 0.258857 1 2 cbr 1000 ------- 1 1.0 2.0 139 139
r 0.259086 1 2 cbr 1000 ------- 1 1.0 2.0 128 128
+ 0.26 1 2 cbr 1000 ------- 1 1.0 2.0 140 140
- 0.26 1 2 cbr 1000 ------- 1 1.0 2.0 140 140
r 0.260229 1 2 cbr 1000 ------- 1 1.0 2.0 129 129
+ 0.261143 1 2 cbr 1000 ------- 1 1.0 2.0 141 141
- 0.261143 1 2 cbr 1000 ------- 1 1.0 2.0 141 141
r 0.261371 1 2 cbr 1000 ------- 1 1.0 2.0 130 130
+ 0.262286 1 2 cbr 1000 ------- 1 1.0 2.0 142 142
- 0.262286 1 2 cbr 1000 ------- 1 1.0 2.0 142 142
r 0.262514 1 2 cbr 1000 ------- 1 1.0 2.0 131 131
+ 0.263429 1 2 cbr 1000 ------- 1 1.0 2.0 143 143
- 0.263429 1 2 cbr 1000 ------- 1 1.0 2.0 143 143
r 0.263657 1 2 cbr 1000 ------- 1 1.0 2.0 132 132
+ 0.264571 1 2 cbr 1000 ------- 1 1.0 2.0 144 144
- 0.264571 1 2 cbr 1000 ------- 1 1.0 2.0 144 144
r 0.2648 1 2 cbr 1000 ------- 1 1.0 2.0 133 133
+ 0.265714 1 2 cbr 1000 ------- 1 1.0 2.0 145 145
- 0.265714 1 2 cbr 1000 ------- 1 1.0 2.0 145 145
r 0.265943 1 2 cbr 1000 ------- 1 1.0 2.0 134 134
+ 0.266857 1 2 cbr 1000 ------- 1 1.0 2.0 146 146
- 0.266857 1 2 cbr 1000 ------- 1 1.0 2.0 146 146
r 0.267086 1 2 cbr 1000 ------- 1 1.0 2.0 135 135
+ 0.268 1 2 cbr 1000 ------- 1 1.0 2.0 147 147
- 0.268 1 2 cbr 1000 ------- 1 1.0 2.0 147 147
r 0.268229 1 2 cbr 1000 ------- 1 1.0 2.0 136 136
+ 0.269143 1 2 cbr 1000 ------- 1 1.0 2.0 148 148
- 0.269143 1 2 cbr 1000 ------- 1 1.0 2.0 148 148
r 0.269371 1 2 cbr 1000 ------- 1 1.0 2.0 137 137
+ 0.270286 1 2 cbr 1000 ------- 1 1.0 2.0 149 149
- 0.270286 1 2 cbr 1000 ------- 1 1.0 2.0 149 149
r 0.270514 1 2 cbr 1000 ------- 1 1.0 2.0 138 138
+ 0.271429 1 2 cbr 1000 ------- 1 1.0 2.0 150 150
- 0.271429 1 2 cbr 1000 ------- 1 1.0 2.0 150 150
r 0.271657 1 2 cbr 1000 ------- 1 1.0 2.0 139 139
+ 0.272571 1 2 cbr 1000 ------- 1 1.0 2.0 151 151
- 0.272571 1 2 cbr 1000 ------- 1 1.0 2.0 151 151
r 0.2728 1 2 cbr 1000 ------- 1 1.0 2.0 140 140
+ 0.273714 1 2 cbr 1000 ------- 1 1.0 2.0 152 152
- 0.273714 1 2 cbr 1000 ------- 1 1.0 2.0 152 152
r 0.273943 1 2 cbr 1000 ------- 1 1.0 2.0 141 141
+ 0.274857 1 2 cbr 1000 ------- 1 1.0 2.0 153 153
- 0.274857 1 2 cbr 1000 ------- 1 1.0 2.0 153 153
r 0.275086 1 2 cbr 1000 ------- 1 1.0 2.0 142 142
+ 0.276 1 2 cbr 1000 ------- 1 1.0 2.0 154 154
- 0.276 1 2 cbr 1000 ------- 1 1.0 2.0 154 154
r 0.276229 1 2 cbr 1000 ------- 1 1.0 2.0 143 143
+ 0.277143 1 2 cbr 1000 ------- 1 1.0 2.0 155 155
- 0.277143 1 2 cbr 1000 ------- 1 1.0 2.0 155 155
r 0.277371 1 2 cbr 1000 ------- 1 1.0 2.0 144 144
+ 0.278286 1 2 cbr 1000 ------- 1 1.0 2.0 156 156
- 0.278286 1 2 cbr 1000 ------- 1 1.0 2.0 156 156
r 0.278514 1 2 cbr 1000 ------- 1 1.0 2.0 145 145
+ 0.279429 1 2 cbr 1000 ------- 1 1.0 2.0 157 157
- 0.279429 1 2 cbr 1000 ------- 1 1.0 2.0 157 157
r 0.279657 1 2 cbr 1000 ------- 1 1.0 2.0 146 146
+ 0.280571 1 2 cbr 1000 ------- 1 1.0 2.0 158 158
- 0.280571 1 2 cbr 1000 ------- 1 1.0 2.0 158 158
r 0.2808 1 2 cbr 1000 ------- 1 1.0 2.0 147 147
+ 0.281714 1 2 cbr 1000 ------- 1 1.0 2.0 159 159
- 0.281714 1 2 cbr 1000 ------- 1 1.0 2.0 159 159
r 0.281943 1 2 cbr 1000 ------- 1 1.0 2.0 148 148
+ 0.282857 1 2 cbr 1000 ------- 1 1.0 2.0 160 160
- 0.282857 1 2 cbr 1000 ------- 1 1.0 2.0 160 160
r 0.283086 1 2 cbr 1000 ------- 1 1.0 2.0 149 149
+ 0.284 1 2 cbr 1000 ------- 1 1.0 2.0 161 161
- 0.284 1 2 cbr 1000 ------- 1 1.0 2.0 161 161
r 0.284229 1 2 cbr 1000 ------- 1 1.0 2.0 150 150
+ 0.285143 1 2 cbr 1000 ------- 1 1.0 2.0 162 162
- 0.285143 1 2 cbr 1000 ------- 1 1.0 2.0 162 162
r 0.285371 1 2 cbr 1000 ------- 1 1.0 2.0 151 151
+ 0.286286 1 2 cbr 1000 ------- 1 1.0 2.0 163 163
- 0.286286 1 2 cbr 1000 ------- 1 1.0 2.0 163 163
r 0.286514 1 2 cbr 1000 ------- 1 1.0 2.0 152 152
+ 0.287429 1 2 cbr 1000 ------- 1 1.0 2.0 164 164
- 0.287429 1 2 cbr 1000 ------- 1 1.0 2.0 164 164
r 0.287657 1 2 cbr 1000 ------- 1 1.0 2.0 153 153
+ 0.288571 1 2 cbr 1000 ------- 1 1.0 2.0 165 165
- 0.288571 1 2 cbr 1000 ------- 1 1.0 2.0 165 165
r 0.2888 1 2 cbr 1000 ------- 1 1.0 2.0 154 154
+ 0.289714 1 2 cbr 1000 ------- 1 1.0 2.0 166 166
- 0.289714 1 2 cbr 1000 ------- 1 1.0 2.0 166 166
r 0.289943 1 2 cbr 1000 ------- 1 1.0 2.0 155 155
+ 0.290857 1 2 cbr 1000 ------- 1 1.0 2.0 167 167
- 0.290857 1 2 cbr 1000 ------- 1 1.0 2.0 167 167
r 0.291086 1 2 cbr 1000 ------- 1 1.0 2.0 156 156
+ 0.292 1 2 cbr 1000 ------- 1 1.0 2.0 168 168
- 0.292 1 2 cbr 1000 ------- 1 1.0 2.0 168 168
r 0.292229 1 2 cbr 1000 ------- 1 1.0 2.0 157 157
+ 0.293143 1 2 cbr 1000 ------- 1 1.0 2.0 169 169
- 0.293143 1 2 cbr 1000 ------- 1 1.0 2.0 169 169
r 0.293371 1 2 cbr 1000 ------- 1 1.0 2.0 158 158
+ 0.294286 1 2 cbr 1000 ------- 1 1.0 2.0 170 170
- 0.294286 1 2 cbr 1000 ------- 1 1.0 2.0 170 170
r 0.294514 1 2 cbr 1000 ------- 1 1.0 2.0 159 159
+ 0.295429 1 2 cbr 1000 ------- 1 1.0 2.0 171 171
- 0.295429 1 2 cbr 1000 ------- 1 1.0 2.0 171 171
r 0.295657 1 2 cbr 1000 ------- 1 1.0 2.0 160 160
+ 0.296571 1 2 cbr 1000 ------- 1 1.0 2.0 172 172
- 0.296571 1 2 cbr 1000 ------- 1 1.0 2.0 172 172
r 0.2968 1 2 cbr 1000 ------- 1 1.0 2.0 161 161
+ 0.297714 1 2 cbr 1000 ------- 1 1.0 2.0 173 173
- 0.297714 1 2 cbr 1000 ------- 1 1.0 2.0 173 173
r 0.297943 1 2 cbr 1000 ------- 1 1.0 2.0 162 162
+ 0.298857 1 2 cbr 1000 ------- 1 1.0 2.0 174 174
- 0.298857 1 2 cbr 1000 ------- 1 1.0 2.0 174 174
r 0.299086 1 2 cbr 1000 ------- 1 1.0 2.0 163 163
+ 0.3 1 2 cbr 1000 ------- 1 1.0 2.0 175 175
- 0.3 1 2 cbr 1000 ------- 1 1.0 2.0 175 175
r 0.300229 1 2 cbr 1000 ------- 1 1.0 2.0 164 164
+ 0.301143 1 2 cbr 1000 ------- 1 1.0 2.0 176 176
- 0.301143 1 2 cbr 1000 ------- 1 1.0 2.0 176 176
r 0.301371 1 2 cbr 1000 ------- 1 1.0 2.0 165 165
+ 0.302286 1 2 cbr 1000 ------- 1 1.0 2.0 177 177
- 0.302286 1 2 cbr 1000 ------- 1 1.0 2.0 177 177
r 0.302514 1 2 cbr 1000 ------- 1 1.0 2.0 166 166
+ 0.303429 1 2 cbr 1000 ------- 1 1.0 2.0 178 178
- 0.303429 1 2 cbr 1000 ------- 1 1.0 2.0 178 178
r 0.303657 1 2 cbr 1000 ------- 1 1.0 2.0 167 167
+ 0.304571 1 2 cbr 1000 ------- 1 1.0 2.0 179 179
- 0.304571 1 2 cbr 1000 ------- 1 1.0 2.0 179 179
r 0.3048 1 2 cbr 1000 ------- 1 1.0 2.0 168 168
+ 0.305714 1 2 cbr 1000 ------- 1 1.0 2.0 180 180
- 0.305714 1 2 cbr 1000 ------- 1 1.0 2.0 180 180
r 0.305943 1 2 cbr 1000 ------- 1 1.0 2.0 169 169
+ 0.306857 1 2 cbr 1000 ------- 1 1.0 2.0 181 181
- 0.306857 1 2 cbr 1000 ------- 1 1.0 2.0 181 181
r 0.307086 1 2 cbr 1000 ------- 1 1.0 2.0 170 170
+ 0.308 1 2 cbr 1000 ------- 1 1.0 2.0 182 182
- 0.308 1 2 cbr 1000 ------- 1 1.0 2.0 182 182
r 0.308229 1 2 cbr 1000 ------- 1 1.0 2.0 171 171
+ 0.309143 1 2 cbr 1000 ------- 1 1.0 2.0 183 183
- 0.309143 1 2 cbr 1000 ------- 1 1.0 2.0 183 183
r 0.309371 1 2 cbr 1000 ------- 1 1.0 2.0 172 172
+ 0.310286 1 2 cbr 1000 ------- 1 1.0 2.0 184 184
- 0.310286 1 2 cbr 1000 ------- 1 1.0 2.0 184 184
r 0.310514 1 2 cbr 1000 ------- 1 1.0 2.0 173 173
+ 0.311429 1 2 cbr 1000 ------- 1 1.0 2.0 185 185
- 0.311429 1 2 cbr 1000 ------- 1 1.0 2.0 185 185
r 0.311657 1 2 cbr 1000 ------- 1 1.0 2.0 174 174
+ 0.312571 1 2 cbr 1000 ------- 1 1.0 2.0 186 186
- 0.312571 1 2 cbr 1000 ------- 1 1.0 2.0 186 186
r 0.3128 1 2 cbr 1000 ------- 1 1.0 2.0 175 175
+ 0.313714 1 2 cbr 1000 ------- 1 1.0 2.0 187 187
- 0.313714 1 2 cbr 1000 ------- 1 1.0 2.0 187 187
r 0.313943 1 2 cbr 1000 ------- 1 1.0 2.0 176 176
+ 0.314857 1 2 cbr 1000 ------- 1 1.0 2.0 188 188
- 0.314857 1 2 cbr 1000 ------- 1 1.0 2.0 188 188
r 0.315086 1 2 cbr 1000 ------- 1 1.0 2.0 177 177
+ 0.316 1 2 cbr 1000 ------- 1 1.0 2.0 189 189
- 0.316 1 2 cbr 1000 ------- 1 1.0 2.0 189 189
r 0.316229 1 2 cbr 1000 ------- 1 1.0 2.0 178 178
+ 0.317143 1 2 cbr 1000 ------- 1 1.0 2.0 190 190
- 0.317143 1 2 cbr 1000 ------- 1 1.0 2.0 190 190
r 0.317371 1 2 cbr 1000 ------- 1 1.0 2.0 179 179
+ 0.318286 1 2 cbr 1000 ------- 1 1.0 2.0 191 191
- 0.318286 1 2 cbr 1000 ------- 1 1.0 2.0 191 191
r 0.318514 1 2 cbr 1000 ------- 1 1.0 2.0 180 180
+ 0.319429 1 2 cbr 1000 ------- 1 1.0 2.0 192 192
- 0.319429 1 2 cbr 1000 ------- 1 1.0 2.0 192 192
r 0.319657 1 2 cbr 1000 ------- 1 1.0 2.0 181 181
+ 0.320571 1 2 cbr 1000 ------- 1 1.0 2.0 193 193
- 0.320571 1 2 cbr 1000 ------- 1 1.0 2.0 193 193
r 0.3208 1 2 cbr 1000 ------- 1 1.0 2.0 182 182
+ 0.321714 1 2 cbr 1000 ------- 1 1.0 2.0 194 194
- 0.321714 1 2 cbr 1000 ------- 1 1.0 2.0 194 194
r 0.321943 1 2 cbr 1000 ------- 1 1.0 2.0 183 183
+ 0.322857 1 2 cbr 1000 ------- 1 1.0 2.0 195 195
- 0.322857 1 2 cbr 1000 ------- 1 1.0 2.0 195 195
r 0.323086 1 2 cbr 1000 ------- 1 1.0 2.0 184 184
+ 0.324 1 2 cbr 1000 ------- 1 1.0 2.0 196 196
- 0.324 1 2 cbr 1000 ------- 1 1.0 2.0 196 196
r 0.324229 1 2 cbr 1000 ------- 1 1.0 2.0 185 185
+ 0.325143 1 2 cbr 1000 ------- 1 1.0 2.0 197 197
- 0.325143 1 2 cbr 1000 ------- 1 1.0 2.0 197 197
r 0.325371 1 2 cbr 1000 ------- 1 1.0 2.0 186 186
+ 0.326286 1 2 cbr 1000 ------- 1 1.0 2.0 198 198
- 0.326286 1 2 cbr 1000 ------- 1 1.0 2.0 198 198
r 0.326514 1 2 cbr 1000 ------- 1 1.0 2.0 187 187
+ 0.327429 1 2 cbr 1000 ------- 1 1.0 2.0 199 199
- 0.327429 1 2 cbr 1000 ------- 1 1.0 2.0 199 199
r 0.327657 1 2 cbr 1000 ------- 1 1.0 2.0 188 188
+ 0.328571 1 2 cbr 1000 ------- 1 1.0 2.0 200 200
- 0.328571 1 2 cbr 1000 ------- 1 1.0 2.0 200 200
r 0.3288 1 2 cbr 1000 ------- 1 1.0 2.0 189 189
+ 0.329714 1 2 cbr 1000 ------- 1 1.0 2.0 201 201
- 0.329714 1 2 cbr 1000 ------- 1 1.0 2.0 201 201
r 0.329943 1 2 cbr 1000 ------- 1 1.0 2.0 190 190
+ 0.330857 1 2 cbr 1000 ------- 1 1.0 2.0 202 202
- 0.330857 1 2 cbr 1000 ------- 1 1.0 2.0 202 202
r 0.331086 1 2 cbr 1000 ------- 1 1.0 2.0 191 191
+ 0.332 1 2 cbr 1000 ------- 1 1.0 2.0 203 203
- 0.332 1 2 cbr 1000 ------- 1 1.0 2.0 203 203
r 0.332229 1 2 cbr 1000 ------- 1 1.0 2.0 192 192
+ 0.333143 1 2 cbr 1000 ------- 1 1.0 2.0 204 204
- 0.333143 1 2 cbr 1000 ------- 1 1.0 2.0 204 204
r 0.333371 1 2 cbr 1000 ------- 1 1.0 2.0 193 193
+ 0.334286 1 2 cbr 1000 ------- 1 1.0 2.0 205 205
- 0.334286 1 2 cbr 1000 ------- 1 1.0 2.0 205 205
r 0.334514 1 2 cbr 1000 ------- 1 1.0 2.0 194 194
+ 0.335429 1 2 cbr 1000 ------- 1 1.0 2.0 206 206
- 0.335429 1 2 cbr 1000 ------- 1 1.0 2.0 206 206
r 0.335657 1 2 cbr 1000 ------- 1 1.0 2.0 195 195
+ 0.336571 1 2 cbr 1000 ------- 1 1.0 2.0 207 207
- 0.336571 1 2 cbr 1000 ------- 1 1.0 2.0 207 207
r 0.3368 1 2 cbr 1000 ------- 1 1.0 2.0 196 196
+ 0.337714 1 2 cbr 1000 ------- 1 1.0 2.0 208 208
- 0.337714 1 2 cbr 1000 ------- 1 1.0 2.0 208 208
r 0.337943 1 2 cbr 1000 ------- 1 1.0 2.0 197 197
+ 0.338857 1 2 cbr 1000 ------- 1 1.0 2.0 209 209
- 0.338857 1 2 cbr 1000 ------- 1 1.0 2.0 209 209