+ 0.1 1 2 cbr 1000 ------- 1 1.0 2.0 0 0
- 0.1 1 2 cbr 1000 ------- 1 1.0 2.0 0 0
+ 0.10087 1 2 cbr 1000 ------- 1 1.0 2.0 1 1
- 0.10087 1 2 cbr 1000 ------- 1 1.0 2.0 1 1
+ 0.101739 1 2 cbr 1000 ------- 1 1.0 2.0 2 2
- 0.101739 1 2 cbr 1000 ------- 1 1.0 2.0 2 2
+ 0.102609 1 2 cbr 1000 ------- 1 1.0 2.0 3 3
- 0.102609 1 2 cbr 1000 ------- 1 1.0 2.0 3 3
+ 0.103478 1 2 cbr 1000 ------- 1 1.0 2.0 4 4
- 0.103478 1 2 cbr 1000 ------- 1 1.0 2.0 4 4
+ 0.104348 1 2 cbr 1000 ------- 1 1.0 2.0 5 5
- 0.104348 1 2 cbr 1000 ------- 1 1.0 2.0 5 5
+ 0.105217 1 2 cbr 1000 ------- 1 1.0 2.0 6 6
- 0.105217 1 2 cbr 1000 ------- 1 1.0 2.0 6 6
+ 0.106087 1 2 cbr 1000 ------- 1 1.0 2.0 7 7
- 0.106087 1 2 cbr 1000 ------- 1 1.0 2.0 7 7
+ 0.106957 1 2 cbr 1000 ------- 1 1.0 2.0 8 8
- 0.106957 1 2 cbr 1000 ------- 1 1.0 2.0 8 8
+ 0.107826 1 2 cbr 1000 ------- 1 1.0 2.0 9 9
- 0.107826 1 2 cbr 1000 ------- 1 1.0 2.0 9 9
+ 0.108696 1 2 cbr 1000 ------- 1 1.0 2.0 10 10
- 0.108696 1 2 cbr 1000 ------- 1 1.0 2.0 10 10
+ 0.109565 1 2 cbr 1000 ------- 1 1.0 2.0 11 11
- 0.109565 1 2 cbr 1000 ------- 1 1.0 2.0 11 11
+ 0.110435 1 2 cbr 1000 ------- 1 1.0 2.0 12 12
- 0.110435 1 2 cbr 1000 ------- 1 1.0 2.0 12 12
+ 0.111304 1 2 cbr 1000 ------- 1 1.0 2.0 13 13
- 0.111304 1 2 cbr 1000 ------- 1 1.0 2.0 13 13
+ 0.112174 1 2 cbr 1000 ------- 1 1.0 2.0 14 14
- 0.112174 1 2 cbr 1000 ------- 1 1.0 2.0 14 14
r 0.1128 1 2 cbr 1000 ------- 1 1.0 2.0 0 0
+ 0.113043 1 2 cbr 1000 ------- 1 1.0 2.0 15 15
- 0.113043 1 2 cbr 1000 ------- 1 1.0 2.0 15 15
r 0.11367 1 2 cbr 1000 ------- 1 1.0 2.0 1 1
+ 0.113913 1 2 cbr 1000 ------- 1 1.0 2.0 16 16
- 0.113913 1 2 cbr 1000 ------- 1 1.0 2.0 16 16
r 0.114539 1 2 cbr 1000 ------- 1 1.0 2.0 2 2
+ 0.114783 1 2 cbr 1000 ------- 1 1.0 2.0 17 17
- 0.114783 1 2 cbr 1000 ------- 1 1.0 2.0 17 17
r 0.115409 1 2 cbr 1000 ------- 1 1.0 2.0 3 3
+ 0.115652 1 2 cbr 1000 ------- 1 1.0 2.0 18 18
- 0.115652 1 2 cbr 1000 ------- 1 1.0 2.0 18 18
r 0.116278 1 2 cbr 1000 ------- 1 1.0 2.0 4 4
+ 0.116522 1 2 cbr 1000 ------- 1 1.0 2.0 19 19
- 0.116522 1 2 cbr 1000 ------- 1 1.0 2.0 19 19
r 0.117148 1 2 cbr 1000 ------- 1 1.0 2.0 5 5
+ 0.117391 1 2 cbr 1000 ------- 1 1.0 2.0 20 20
- 0.117391 1 2 cbr 1000 ------- 1 1.0 2.0 20 20
r 0.118017 1 2 cbr 1000 ------- 1 1.0 2.0 6 6
+ 0.118261 1 2 cbr 1000 ------- 1 1.0 2.0 21 21
- 0.118261 1 2 cbr 1000 ------- 1 1.0 2.0 21 21
r 0.118887 1 2 cbr 1000 ------- 1 1.0 2.0 7 7
+ 0.11913 1 2 cbr 1000 ------- 1 1.0 2.0 22 22
- 0.11913 1 2 cbr 1000 ------- 1 1.0 2.0 22 22
r 0.119757 1 2 cbr 1000 ------- 1 1.0 2.0 8 8
+ 0.12 1 2 cbr 1000 ------- 1 1.0 2.0 23 23
- 0.12 1 2 cbr 1000 ------- 1 1.0 2.0 23 23
r 0.120626 1 2 cbr 1000 ------- 1 1.0 2.0 9 9
+ 0.12087 1 2 cbr 1000 ------- 1 1.0 2.0 24 24
- 0.12087 1 2 cbr 1000 ------- 1 1.0 2.0 24 24
r 0.121496 1 2 cbr 1000 ------- 1 1.0 2.0 10 10
+ 0.121739 1 2 cbr 1000 ------- 1 1.0 2.0 25 25
- 0.121739 1 2 cbr 1000 ------- 1 1.0 2.0 25 25
r 0.122365 1 2 cbr 1000 ------- 1 1.0 2.0 11 11
+ 0.122609 1 2 cbr 1000 ------- 1 1.0 2.0 26 26
- 0.122609 1 2 cbr 1000 ------- 1 1.0 2.0 26 26
r 0.123235 1 2 cbr 1000 ------- 1 1.0 2.0 12 12
+ 0.123478 1 2 cbr 1000 ------- 1 1.0 2.0 27 27
- 0.123478 1 2 cbr 1000 ------- 1 1.0 2.0 27 27
r 0.124104 1 2 cbr 1000 ------- 1 1.0 2.0 13 13
+ 0.124348 1 2 cbr 1000 ------- 1 1.0 2.0 28 28
- 0.124348 1 2 cbr 1000 ------- 1 1.0 2.0 28 28
r 0.124974 1 2 cbr 1000 ------- 1 1.0 2.0 14 14
+ 0.125217 1 2 cbr 1000 ------- 1 1.0 2.0 29 29
- 0.125217 1 2 cbr 1000 ------- 1 1.0 2.0 29 29
r 0.125843 1 2 cbr 1000 ------- 1 1.0 2.0 15 15
+ 0.126087 1 2 cbr 1000 ------- 1 1.0 2.0 30 30
- 0.126087 1 2 cbr 1000 ------- 1 1.0 2.0 30 30
r 0.126713 1 2 cbr 1000 ------- 1 1.0 2.0 16 16
+ 0.126957 1 2 cbr 1000 ------- 1 1.0 2.0 31 31
- 0.126957 1 2 cbr 1000 ------- 1 1.0 2.0 31 31
r 0.127583 1 2 cbr 1000 ------- 1 1.0 2.0 17 17
+ 0.127826 1 2 cbr 1000 ------- 1 1.0 2.0 32 32
- 0.127826 1 2 cbr 1000 ------- 1 1.0 2.0 32 32
r 0.128452 1 2 cbr 1000 ------- 1 1.0 2.0 18 18
+ 0.128696 1 2 cbr 1000 ------- 1 1.0 2.0 33 33
- 0.128696 1 2 cbr 1000 ------- 1 1.0 2.0 33 33
r 0.129322 1 2 cbr 1000 ------- 1 1.0 2.0 19 19
+ 0.129565 1 2 cbr 1000 ------- 1 1.0 2.0 34 34
- 0.129565 1 2 cbr 1000 ------- 1 1.0 2.0 34 34
r 0.130191 1 2 cbr 1000 ------- 1 1.0 2.0 20 20
+ 0.130435 1 2 cbr 1000 ------- 1 1.0 2.0 35 35
- 0.130435 1 2 cbr 1000 ------- 1 1.0 2.0 35 35
r 0.131061 1 2 cbr 1000 ------- 1 1.0 2.0 21 21
+ 0.131304 1 2 cbr 1000 ------- 1 1.0 2.0 36 36
- 0.131304 1 2 cbr 1000 ------- 1 1.0 2.0 36 36
r 0.13193 1 2 cbr 1000 ------- 1 1.0 2.0 22 22
+ 0.132174 1 2 cbr 1000 ------- 1 1.0 2.0 37 37
- 0.132174 1 2 cbr 1000 ------- 1 1.0 2.0 37 37
r 0.1328 1 2 cbr 1000 ------- 1 1.0 2.0 23 23
+ 0.133043 1 2 cbr 1000 ------- 1 1.0 2.0 38 38
- 0.133043 1 2 cbr 1000 ------- 1 1.0 2.0 38 38
r 0.13367 1 2 cbr 1000 ------- 1 1.0 2.0 24 24
+ 0.133913 1 2 cbr 1000 ------- 1 1.0 2.0 39 39
- 0.133913 1 2 cbr 1000 ------- 1 1.0 2.0 39 39
r 0.134539 1 2 cbr 1000 ------- 1 1.0 2.0 25 25
+ 0.134783 1 2 cbr 1000 ------- 1 1.0 2.0 40 40
- 0.134783 1 2 cbr 1000 ------- 1 1.0 2.0 40 40
r 0.135409 1 2 cbr 1000 ------- 1 1.0 2.0 26 26
+ 0.135652 1 2 cbr 1000 ------- 1 1.0 2.0 41 41
- 0.135652 1 2 cbr 1000 ------- 1 1.0 2.0 41 41
r 0.136278 1 2 cbr 1000 ------- 1 1.0 2.0 27 27
+ 0.136522 1 2 cbr 1000 ------- 1 1.0 2.0 42 42
- 0.136522 1 2 cbr 1000 ------- 1 1.0 2.0 42 42
r 0.137148 1 2 cbr 1000 ------- 1 1.0 2.0 28 28
+ 0.137391 1 2 cbr 1000 ------- 1 1.0 2.0 43 43
- 0.137391 1 2 cbr 1000 ------- 1 1.0 2.0 43 43
r 0.138017 1 2 cbr 1000 ------- 1 1.0 2.0 29 29
+ 0.138261 1 2 cbr 1000 ------- 1 1.0 2.0 44 44
- 0.138261 1 2 cbr 1000 ------- 1 1.0 2.0 44 44
r 0.138887 1 2 cbr 1000 ------- 1 1.0 2.0 30 30
+ 0.13913 1 2 cbr 1000 ------- 1 1.0 2.0 45 45
- 0.13913 1 2 cbr 1000 ------- 1 1.0 2.0 45 45
r 0.139757 1 2 cbr 1000 ------- 1 1.0 2.0 31 31
+ 0.14 1 2 cbr 1000 ------- 1 1.0 2.0 46 46
- 0.14 1 2 cbr 1000 ------- 1 1.0 2.0 46 46
r 0.140626 1 2 cbr 1000 ------- 1 1.0 2.0 32 32
+ 0.14087 1 2 cbr 1000 ------- 1 1.0 2.0 47 47
- 0.14087 1 2 cbr 1000 ------- 1 1.0 2.0 47 47
r 0.141496 1 2 cbr 1000 ------- 1 1.0 2.0 33 33
+ 0.141739 1 2 cbr 1000 ------- 1 1.0 2.0 48 48
- 0.141739 1 2 cbr 1000 ------- 1 1.0 2.0 48 48
r 0.142365 1 2 cbr 1000 ------- 1 1.0 2.0 34 34
+ 0.142609 1 2 cbr 1000 ------- 1 1.0 2.0 49 49
- 0.142609 1 2 cbr 1000 ------- 1 1.0 2.0 49 49
r 0.143235 1 2 cbr 1000 ------- 1 1.0 2.0 35 35
+ 0.143478 1 2 cbr 1000 ------- 1 1.0 2.0 50 50
- 0.143478 1 2 cbr 1000 ------- 1 1.0 2.0 50 50
r 0.144104 1 2 cbr 1000 ------- 1 1.0 2.0 36 36
+ 0.144348 1 2 cbr 1000 ------- 1 1.0 2.0 51 51
- 0.144348 1 2 cbr 1000 ------- 1 1.0 2.0 51 51
r 0.144974 1 2 cbr 1000 ------- 1 1.0 2.0 37 37
+ 0.145217 1 2 cbr 1000 ------- 1 1.0 2.0 52 52
- 0.145217 1 2 cbr 1000 ------- 1 1.0 2.0 52 52
r 0.145843 1 2 cbr 1000 ------- 1 1.0 2.0 38 38
+ 0.146087 1 2 cbr 1000 ------- 1 1.0 2.0 53 53
- 0.146087 1 2 cbr 1000 ------- 1 1.0 2.0 53 53
r 0.146713 1 2 cbr 1000 ------- 1 1.0 2.0 39 39
+ 0.146957 1 2 cbr 1000 ------- 1 1.0 2.0 54 54
- 0.146957 1 2 cbr 1000 ------- 1 1.0 2.0 54 54
r 0.147583 1 2 cbr 1000 ------- 1 1.0 2.0 40 40
+ 0.147826 1 2 cbr 1000 ------- 1 1.0 2.0 55 55
- 0.147826 1 2 cbr 1000 ------- 1 1.0 2.0 55 55
r 0.148452 1 2 cbr 1000 ------- 1 1.0 2.0 41 41
+ 0.148696 1 2 cbr 1000 ------- 1 1.0 2.0 56 56
- 0.148696 1 2 cbr 1000 ------- 1 1.0 2.0 56 56
r 0.149322 1 2 cbr 1000 ------- 1 1.0 2.0 42 42
+ 0.149565 1 2 cbr 1000 ------- 1 1.0 2.0 57 57
- 0.149565 1 2 cbr 1000 ------- 1 1.0 2.0 57 57
r 0.150191 1 2 cbr 1000 ------- 1 1.0 2.0 43 43
+ 0.150435 1 2 cbr 1000 ------- 1 1.0 2.0 58 58
- 0.150435 1 2 cbr 1000 ------- 1 1.0 2.0 58 58
r 0.151061 1 2 cbr 1000 ------- 1 1.0 2.0 44 44
+ 0.151304 1 2 cbr 1000 ------- 1 1.0 2.0 59 59
- 0.151304 1 2 cbr 1000 ------- 1 1.0 2.0 59 59
r 0.15193 1 2 cbr 1000 ------- 1 1.0 2.0 45 45
+ 0.152174 1 2 cbr 1000 ------- 1 1.0 2.0 60 60
- 0.152174 1 2 cbr 1000 ------- 1 1.0 2.0 60 60
r 0.1528 1 2 cbr 1000 ------- 1 1.0 2.0 46 46
+ 0.153043 1 2 cbr 1000 ------- 1 1.0 2.0 61 61
- 0.153043 1 2 cbr 1000 ------- 1 1.0 2.0 61 61
r 0.15367 1 2 cbr 1000 ------- 1 1.0 2.0 47 47
+ 0.153913 1 2 cbr 1000 ------- 1 1.0 2.0 62 62
- 0.153913 1 2 cbr 1000 ------- 1 1.0 2.0 62 62
r 0.154539 1 2 cbr 1000 ------- 1 1.0 2.0 48 48
+ 0.154783 1 2 cbr 1000 ------- 1 1.0 2.0 63 63
- 0.154783 1 2 cbr 1000 ------- 1 1.0 2.0 63 63
r 0.155409 1 2 cbr 1000 ------- 1 1.0 2.0 49 49
+ 0.155652 1 2 cbr 1000 ------- 1 1.0 2.0 64 64
- 0.155652 1 2 cbr 1000 ------- 1 1.0 2.0 64 64
r 0.156278 1 2 cbr 1000 ------- 1 1.0 2.0 50 50
+ 0.156522 1 2 cbr 1000 ------- 1 1.0 2.0 65 65
- 0.156522 1 2 cbr 1000 ------- 1 1.0 2.0 65 65
r 0.157148 1 2 cbr 1000 ------- 1 1.0 2.0 51 51
+ 0.157391 1 2 cbr 1000 ------- 1 1.0 2.0 66 66
- 0.157391 1 2 cbr 1000 ------- 1 1.0 2.0 66 66
r 0.158017 1 2 cbr 1000 ------- 1 1.0 2.0 52 52
+ 0.158261 1 2 cbr 1000 ------- 1 1.0 2.0 67 67
- 0.158261 1 2 cbr 1000 ------- 1 1.0 2.0 67 67
r 0.158887 1 2 cbr 1000 ------- 1 1.0 2.0 53 53
+ 0.15913 1 2 cbr 1000 ------- 1 1.0 2.0 68 68
- 0.15913 1 2 cbr 1000 ------- 1 1.0 2.0 68 68
r 0.159757 1 2 cbr 1000 ------- 1 1.0 2.0 54 54
+ 0.16 1 2 cbr 1000 ------- 1 1.0 2.0 69 69
- 0.16 1 2 cbr 1000 ------- 1 1.0 2.0 69 69
r 0.160626 1 2 cbr 1000 ------- 1 1.0 2.0 55 55
+ 0.16087 1 2 cbr 1000 ------- 1 1.0 2.0 70 70
- 0.16087 1 2 cbr 1000 ------- 1 1.0 2.0 70 70
r 0.161496 1 2 cbr 1000 ------- 1 1.0 2.0 56 56
+ 0.161739 1 2 cbr 1000 ------- 1 1.0 2.0 71 71
- 0.161739 1 2 cbr 1000 ------- 1 1.0 2.0 71 71
r 0.162365 1 2 cbr 1000 ------- 1 1.0 2.0 57 57
+ 0.162609 1 2 cbr 1000 ------- 1 1.0 2.0 72 72
- 0.162609 1 2 cbr 1000 ------- 1 1.0 2.0 72 72
r 0.163235 1 2 cbr 1000 ------- 1 1.0 2.0 58 58
+ 0.163478 1 2 cbr 1000 ------- 1 1.0 2.0 73 73
- 0.163478 1 2 cbr 1000 ------- 1 1.0 2.0 73 73
r 0.164104 1 2 cbr 1000 ------- 1 1.0 2.0 59 59
+ 0.164348 1 2 cbr 1000 ------- 1 1.0 2.0 74 74
- 0.164348 1 2 cbr 1000 ------- 1 1.0 2.0 74 74
r 0.164974 1 2 cbr 1000 ------- 1 1.0 2.0 60 60
+ 0.165217 1 2 cbr 1000 ------- 1 1.0 2.0 75 75
- 0.165217 1 2 cbr 1000 ------- 1 1.0 2.0 75 75
r 0.165843 1 2 cbr 1000 ------- 1 1.0 2.0 61 61
+ 0.166087 1 2 cbr 1000 ------- 1 1.0 2.0 76 76
- 0.166087 1 2 cbr 1000 ------- 1 1.0 2.0 76 76
r 0.166713 1 2 cbr 1000 ------- 1 1.0 2.0 62 62
+ 0.166957 1 2 cbr 1000 ------- 1 1.0 2.0 77 77
- 0.166957 1 2 cbr 1000 ------- 1 1.0 2.0 77 77
r 0.167583 1 2 cbr 1000 ------- 1 1.0 2.0 63 63
+ 0.167826 1 2 cbr 1000 ------- 1 1.0 2.0 78 78
- 0.167826 1 2 cbr 1000 ------- 1 1.0 2.0 78 78
r 0.168452 1 2 cbr 1000 ------- 1 1.0 2.0 64 64
+ 0.168696 1 2 cbr 1000 ------- 1 1.0 2.0 79 79
- 0.168696 1 2 cbr 1000 ------- 1 1.0 2.0 79 79
r 0.169322 1 2 cbr 1000 ------- 1 1.0 2.0 65 65
+ 0.169565 1 2 cbr 1000 ------- 1 1.0 2.0 80 80
- 0.169565 1 2 cbr 1000 ------- 1 1.0 2.0 80 80
r 0.170191 1 2 cbr 1000 ------- 1 1.0 2.0 66 66
+ 0.170435 1 2 cbr 1000 ------- 1 1.0 2.0 81 81
- 0.170435 1 2 cbr 1000 ------- 1 1.0 2.0 81 81
r 0.171061 1 2 cbr 1000 ------- 1 1.0 2.0 67 67
+ 0.171304 1 2 cbr 1000 ------- 1 1.0 2.0 82 82
- 0.171304 1 2 cbr 1000 ------- 1 1.0 2.0 82 82
r 0.17193 1 2 cbr 1000 ------- 1 1.0 2.0 68 68
+ 0.172174 1 2 cbr 1000 ------- 1 1.0 2.0 83 83
- 0.172174 1 2 cbr 1000 ------- 1 1.0 2.0 83 83
r 0.1728 1 2 cbr 1000 ------- 1 1.0 2.0 69 69
+ 0.173043 1 2 cbr 1000 ------- 1 1.0 2.0 84 84
- 0.173043 1 2 cbr 1000 ------- 1 1.0 2.0 84 84
r 0.17367 1 2 cbr 1000 ------- 1 1.0 2.0 70 70
+ 0.173913 1 2 cbr 1000 ------- 1 1.0 2.0 85 85
- 0.173913 1 2 cbr 1000 ------- 1 1.0 2.0 85 85
r 0.174539 1 2 cbr 1000 ------- 1 1.0 2.0 71 71
+ 0.174783 1 2 cbr 1000 ------- 1 1.0 2.0 86 86
- 0.174783 1 2 cbr 1000 ------- 1 1.0 2.0 86 86
r 0.175409 1 2 cbr 1000 ------- 1 1.0 2.0 72 72
+ 0.175652 1 2 cbr 1000 ------- 1 1.0 2.0 87 87
- 0.175652 1 2 cbr 1000 ------- 1 1.0 2.0 87 87
r 0.176278 1 2 cbr 1000 ------- 1 1.0 2.0 73 73
+ 0.176522 1 2 cbr 1000 ------- 1 1.0 2.0 88 88
- 0.176522 1 2 cbr 1000 ------- 1 1.0 2.0 88 88
r 0.177148 1 2 cbr 1000 ------- 1 1.0 2.0 74 74
+ 0.177391 1 2 cbr 1000 ------- 1 1.0 2.0 89 89
- 0.177391 1 2 cbr 1000 ------- 1 1.0 2.0 89 89
r 0.178017 1 2 cbr 1000 ------- 1 1.0 2.0 75 75
+ 0.178261 1 2 cbr 1000 ------- 1 1.0 2.0 90 90
- 0.178261 1 2 cbr 1000 ------- 1 1.0 2.0 90 90
r 0.178887 1 2 cbr 1000 ------- 1 1.0 2.0 76 76
+ 0.17913 1 2 cbr 1000 ------- 1 1.0 2.0 91 91
- 0.17913 1 2 cbr 1000 ------- 1 1.0 2.0 91 91
r 0.179757 1 2 cbr 1000 ------- 1 1.0 2.0 77 77
+ 0.18 1 2 cbr 1000 ------- 1 1.0 2.0 92 92
- 0.18 1 2 cbr 1000 ------- 1 1.0 2.0 92 92
r 0.180626 1 2 cbr 1000 ------- 1 1.0 2.0 78 78
+ 0.18087 1 2 cbr 1000 ------- 1 1.0 2.0 93 93
- 0.18087 1 2 cbr 1000 ------- 1 1.0 2.0 93 93
r 0.181496 1 2 cbr 1000 ------- 1 1.0 2.0 79 79
+ 0.181739 1 2 cbr 1000 ------- 1 1.0 2.0 94 94
- 0.181739 1 2 cbr 1000 ------- 1 1.0 2.0 94 94
r 0.182365 1 2 cbr 1000 ------- 1 1.0 2.0 80 80
+ 0.182609 1 2 cbr 1000 ------- 1 1.0 2.0 95 95
- 0.182609 1 2 cbr 1000 ------- 1 1.0 2.0 95 95
r 0.183235 1 2 cbr 1000 ------- 1 1.0 2.0 81 81
+ 0.183478 1 2 cbr 1000 ------- 1 1.0 2.0 96 96
- 0.183478 1 2 cbr 1000 ------- 1 1.0 2.0 96 96
r 0.184104 1 2 cbr 1000 ------- 1 1.0 2.0 82 82
+ 0.184348 1 2 cbr 1000 ------- 1 1.0 2.0 97 97
- 0.184348 1 2 cbr 1000 ------- 1 1.0 2.0 97 97
r 0.184974 1 2 cbr 1000 ------- 1 1.0 2.0 83 83
+ 0.185217 1 2 cbr 1000 ------- 1 1.0 2.0 98 98
- 0.185217 1 2 cbr 1000 ------- 1 1.0 2.0 98 98
r 0.185843 1 2 cbr 1000 ------- 1 1.0 2.0 84 84
+ 0.186087 1 2 cbr 1000 ------- 1 1.0 2.0 99 99
- 0.186087 1 2 cbr 1000 ------- 1 1.0 2.0 99 99
r 0.186713 1 2 cbr 1000 ------- 1 1.0 2.0 85 85
+ 0.186957 1 2 cbr 1000 ------- 1 1.0 2.0 100 100
- 0.186957 1 2 cbr 1000 ------- 1 1.0 2.0 100 100
r 0.187583 1 2 cbr 1000 ------- 1 1.0 2.0 86 86
+ 0.187826 1 2 cbr 1000 ------- 1 1.0 2.0 101 101
- 0.187826 1 2 cbr 1000 ------- 1 1.0 2.0 101 101
r 0.188452 1 2 cbr 1000 ------- 1 1.0 2.0 87 87
+ 0.188696 1 2 cbr 1000 ------- 1 1.0 2.0 102 102
- 0.188696 1 2 cbr 1000 ------- 1 1.0 2.0 102 102
r 0.189322 1 2 cbr 1000 ------- 1 1.0 2.0 88 88
+ 0.189565 1 2 cbr 1000 ------- 1 1.0 2.0 103 103
- 0.189565 1 2 cbr 1000 ------- 1 1.0 2.0 103 103
r 0.190191 1 2 cbr 1000 ------- 1 1.0 2.0 89 89
+ 0.190435 1 2 cbr 1000 ------- 1 1.0 2.0 104 104
- 0.190435 1 2 cbr 1000 ------- 1 1.0 2.0 104 104
r 0.191061 1 2 cbr 1000 ------- 1 1.0 2.0 90 90
+ 0.191304 1 2 cbr 1000 ------- 1 1.0 2.0 105 105
- 0.191304 1 2 cbr 1000 ------- 1 1.0 2.0 105 105
r 0.19193 1 2 cbr 1000 ------- 1 1.0 2.0 91 91
+ 0.192174 1 2 cbr 1000 ------- 1 1.0 2.0 106 106
- 0.192174 1 2 cbr 1000 ------- 1 1.0 2.0 106 106
r 0.1928 1 2 cbr 1000 ------- 1 1.0 2.0 92 92
+ 0.193043 1 2 cbr 1000 ------- 1 1.0 2.0 107 107
- 0.193043 1 2 cbr 1000 ------- 1 1.0 2.0 107 107
r 0.19367 1 2 cbr 1000 ------- 1 1.0 2.0 93 93
+ 0.193913 1 2 cbr 1000 ------- 1 1.0 2.0 108 108
- 0.193913 1 2 cbr 1000 ------- 1 1.0 2.0 108 108
r 0.194539 1 2 cbr 1000 ------- 1 1.0 2.0 94 94
+ 0.194783 1 2 cbr 1000 ------- 1 1.0 2.0 109 109
- 0.194783 1 2 cbr 1000 ------- 1 1.0 2.0 109 109
r 0.195409 1 2 cbr 1000 ------- 1 1.0 2.0 95 95
+ 0.195652 1 2 cbr 1000 ------- 1 1.0 2.0 110 110
- 0.195652 1 2 cbr 1000 ------- 1 1.0 2.0 110 110
r 0.196278 1 2 cbr 1000 ------- 1 1.0 2.0 96 96
+ 0.196522 1 2 cbr 1000 ------- 1 1.0 2.0 111 111
- 0.196522 1 2 cbr 1000 ------- 1 1.0 2.0 111 111
r 0.197148 1 2 cbr 1000 ------- 1 1.0 2.0 97 97
+ 0.197391 1 2 cbr 1000 ------- 1 1.0 2.0 112 112
- 0.197391 1 2 cbr 1000 ------- 1 1.0 2.0 112 112
r 0.198017 1 2 cbr 1000 ------- 1 1.0 2.0 98 98
+ 0.198261 1 2 cbr 1000 ------- 1 1.0 2.0 113 113
- 0.198261 1 2 cbr 1000 ------- 1 1.0 2.0 113 113
r 0.198887 1 2 cbr 1000 ------- 1 1.0 2.0 99 99
+ 0.19913 1 2 cbr 1000 ------- 1 1.0 2.0 114 114
- 0.19913 1 2 cbr 1000 ------- 1 1.0 2.0 114 114
r 0.199757 1 2 cbr 1000 ------- 1 1.0 2.0 100 100
+ 0.2 1 2 cbr 1000 ------- 1 1.0 2.0 115 115
- 0.2 1 2 cbr 1000 ------- 1 1.0 2.0 115 115
r 0.200626 1 2 cbr 1000 ------- 1 1.0 2.0 101 101
+ 0.20087 1 2 cbr 1000 ------- 1 1.0 2.0 116 116
- 0.20087 1 2 cbr 1000 ------- 1 1.0 2.0 116 116
r 0.201496 1 2 cbr 1000 ------- 1 1.0 2.0 102 102
+ 0.201739 1 2 cbr 1000 ------- 1 1.0 2.0 117 117
- 0.201739 1 2 cbr 1000 ------- 1 1.0 2.0 117 117
r 0.202365 1 2 cbr 1000 ------- 1 1.0 2.0 103 103
+ 0.202609 1 2 cbr 1000 ------- 1 1.0 2.0 118 118
- 0.202609 1 2 cbr 1000 ------- 1 1.0 2.0 118 118
r 0.203235 1 2 cbr 1000 ------- 1 1.0 2.0 104 104
+ 0.203478 1 2 cbr 1000 ------- 1 1.0 2.0 119 119
- 0.203478 1 2 cbr 1000 ------- 1 1.0 2.0 119 119
r 0.204104 1 2 cbr 1000 ------- 1 1.0 2.0 105 105
+ 0.204348 1 2 cbr 1000 ------- 1 1.0 2.0 120 120
- 0.204348 1 2 cbr 1000 ------- 1 1.0 2.0 120 120
r 0.204974 1 2 cbr 1000 ------- 1 1.0 2.0 106 106
+ 0.205217 1 2 cbr 1000 ------- 1 1.0 2.0 121 121
- 0.205217 1 2 cbr 1000 ------- 1 1.0 2.0 121 121
r 0.205843 1 2 cbr 1000 ------- 1 1.0 2.0 107 107
+ 0.206087 1 2 cbr 1000 ------- 1 1.0 2.0 122 122
- 0.206087 1 2 cbr 1000 ------- 1 1.0 2.0 122 122
r 0.206713 1 2 cbr 1000 ------- 1 1.0 2.0 108 108
+ 0.206957 1 2 cbr 1000 ------- 1 1.0 2.0 123 123
- 0.206957 1 2 cbr 1000 ------- 1 1.0 2.0 123 123
r 0.207583 1 2 cbr 1000 ------- 1 1.0 2.0 109 109
+ 0.207826 1 2 cbr 1000 ------- 1 1.0 2.0 124 124
- 0.207826 1 2 cbr 1000 ------- 1 1.0 2.0 124 124
r 0.208452 1 2 cbr 1000 ------- 1 1.0 2.0 110 110
+ 0.208696 1 2 cbr 1000 ------- 1 1.0 2.0 125 125
- 0.208696 1 2 cbr 1000 ------- 1 1.0 2.0 125 125
r 0.209322 1 2 cbr 1000 ------- 1 1.0 2.0 111 111
+ 0.209565 1 2 cbr 1000 ------- 1 1.0 2.0 126 126
- 0.209565 1 2 cbr 1000 ------- 1 1.0 2.0 126 126
r 0.210191 1 2 cbr 1000 ------- 1 1.0 2.0 112 112
+ 0.210435 1 2 cbr 1000 ------- 1 1.0 2.0 127 127
- 0.210435 1 2 cbr 1000 ------- 1 1.0 2.0 127 127
r 0.211061 1 2 cbr 1000 ------- 1 1.0 2.0 113 113
+ 0.211304 1 2 cbr 1000 ------- 1 1.0 2.0 128 128
- 0.211304 1 2 cbr 1000 ------- 1 1.0 2.0 128 128
r 0.21193 1 2 cbr 1000 ------- 1 1.0 2.0 114 114
+ 0.212174 1 2 cbr 1000 ------- 1 1.0 2.0 129 129
- 0.212174 1 2 cbr 1000 ------- 1 1.0 2.0 129 129
r 0.2128 1 2 cbr 1000 ------- 1 1.0 2.0 115 115
+ 0.213043 1 2 cbr 1000 ------- 1 1.0 2.0 130 130
- 0.213043 1 2 cbr 1000 ------- 1 1.0 2.0 130 130
r 0.21367 1 2 cbr 1000 ------- 1 1.0 2.0 116 116
+ 0.213913 1 2 cbr 1000 ------- 1 1.0 2.0 131 131
- 0.213913 1 2 cbr 1000 ------- 1 1.0 2.0 131 131
r 0.214539 1 2 cbr 1000 ------- 1 1.0 2.0 117 117
+ 0.214783 1 2 cbr 1000 ------- 1 1.0 2.0 132 132
- 0.214783 1 2 cbr 1000 ------- 1 1.0 2.0 132 132
r 0.215409 1 2 cbr 1000 ------- 1 1.0 2.0 118 118
+ 0.215652 1 2 cbr 1000 ------- 1 1.0 2.0 133 133
- 0.215652 1 2 cbr 1000 ------- 1 1.0 2.0 133 133
r 0.216278 1 2 cbr 1000 ------- 1 1.0 2.0 119 119
+ 0.216522 1 2 cbr 1000 ------- 1 1.0 2.0 134 134
- 0.216522 1 2 cbr 1000 ------- 1 1.0 2.0 134 134
r 0.217148 1 2 cbr 1000 ------- 1 1.0 2.0 120 120
+ 0.217391 1 2 cbr 1000 ------- 1 1.0 2.0 135 135
- 0.217391 1 2 cbr 1000 ------- 1 1.0 2.0 135 135
r 0.218017 1 2 cbr 1000 ------- 1 1.0 2.0 121 121
+ 0.218261 1 2 cbr 1000 ------- 1 1.0 2.0 136 136
- 0.218261 1 2 cbr 1000 ------- 1 1.0 2.0 136 136
r 0.218887 1 2 cbr 1000 ------- 1 1.0 2.0 122 122
+ 0.21913 1 2 cbr 1000 ------- 1 1.0 2.0 137 137
- 0.21913 1 2 cbr 1000 ------- 1 1.0 2.0 137 137
r 0.219757 1 2 cbr 1000 ------- 1 1.0 2.0 123 123
+ 0.22 1 2 cbr 1000 ------- 1 1.0 2.0 138 138
- 0.22 1 2 cbr 1000 ------- 1 1.0 2.0 138 138
r 0.220626 1 2 cbr 1000 ------- 1 1.0 2.0 124 124
+ 0.22087 1 2 cbr 1000 ------- 1 1.0 2.0 139 139
- 0.22087 1 2 cbr 1000 ------- 1 1.0 2.0 139 139
r 0.221496 1 2 cbr 1000 ------- 1 1.0 2.0 125 125
+ 0.221739 1 2 cbr 1000 ------- 1 1.0 2.0 140 140
- 0.221739 1 2 cbr 1000 ------- 1 1.0 2.0 140 140
r 0.222365 1 2 cbr 1000 ------- 1 1.0 2.0 126 126
+ 0.222609 1 2 cbr 1000 ------- 1 1.0 2.0 141 141
- 0.222609 1 2 cbr 1000 ------- 1 1.0 2.0 141 141
r 0.223235 1 2 cbr 1000 ------- 1 1.0 2.0 127 127
+ 0.223478 1 2 cbr 1000 ------- 1 1.0 2.0 142 142
- 0.223478 1 2 cbr 1000 ------- 1 1.0 2.0 142 142
r 0.224104 1 2 cbr 1000 ------- 1 1.0 2.0 128 128
+ 0.224348 1 2 cbr 1000 ------- 1 1.0 2.0 143 143
- 0.224348 1 2 cbr 1000 ------- 1 1.0 2.0 143 143
r 0.224974 1 2 cbr 1000 ------- 1 1.0 2.0 129 129
+ 0.225217 1 2 cbr 1000 ------- 1 1.0 2.0 144 144
- 0.225217 1 2 cbr 1000 ------- 1 1.0 2.0 144 144
r 0.225843 1 2 cbr 1000 ------- 1 1.0 2.0 130 130
+ 0.226087 1 2 cbr 1000 ------- 1 1.0 2.0 145 145
- 0.226087 1 2 cbr 1000 ------- 1 1.0 2.0 145 145
r 0.226713 1 2 cbr 1000 ------- 1 1.0 2.0 131 131
+ 0.226957 1 2 cbr 1000 ------- 1 1.0 2.0 146 146
- 0.226957 1 2 cbr 1000 ------- 1 1.0 2.0 146 146
r 0.227583 1 2 cbr 1000 ------- 1 1.0 2.0 132 132
+ 0.227826 1 2 cbr 1000 ------- 1 1.0 2.0 147 147
- 0.227826 1 2 cbr 1000 ------- 1 1.0 2.0 147 147
r 0.228452 1 2 cbr 1000 ------- 1 1.0 2.0 133 133
+ 0.228696 1 2 cbr 1000 ------- 1 1.0 2.0 148 148
- 0.228696 1 2 cbr 1000 ------- 1 1.0 2.0 148 148
r 0.229322 1 2 cbr 1000 ------- 1 1.0 2.0 134 134
+ 0.229565 1 2 cbr 1000 ------- 1 1.0 2.0 149 149
- 0.229565 1 2 cbr 1000 ------- 1 1.0 2.0 149 149
r 0.230191 1 2 cbr 1000 ------- 1 1.0 2.0 135 135
+ 0.230435 1 2 cbr 1000 ------- 1 1.0 2.0 150 150
- 0.230435 1 2 cbr 1000 ------- 1 1.0 2.0 150 150
r 0.231061 1 2 cbr 1000 ------- 1 1.0 2.0 136 136
+ 0.231304 1 2 cbr 1000 ------- 1 1.0 2.0 151 151
- 0.231304 1 2 cbr 1000 ------- 1 1.0 2.0 151 151
r 0.23193 1 2 cbr 1000 ------- 1 1.0 2.0 137 137
+ 0.232174 1 2 cbr 1000 ------- 1 1.0 2.0 152 152
- 0.232174 1 2 cbr 1000 ------- 1 1.0 2.0 152 152
r 0.2328 1 2 cbr 1000 ------- 1 1.0 2.0 138 138
+ 0.233043 1 2 cbr 1000 ------- 1 1.0 2.0 153 153
- 0.233043 1 2 cbr 1000 ------- 1 1.0 2.0 153 153
r 0.23367 1 2 cbr 1000 ------- 1 1.0 2.0 139 139
+ 0.233913 1 2 cbr 1000 ------- 1 1.0 2.0 154 154
- 0.233913 1 2 cbr 1000 ------- 1 1.0 2.0 154 154
r 0.234539 1 2 cbr 1000 ------- 1 1.0 2.0 140 140
+ 0.234783 1 2 cbr 1000 ------- 1 1.0 2.0 155 155
- 0.234783 1 2 cbr 1000 ------- 1 1.0 2.0 155 155
r 0.235409 1 2 cbr 1000 ------- 1 1.0 2.0 141 141
+ 0.235652 1 2 cbr 1000 ------- 1 1.0 2.0 156 156
- 0.235652 1 2 cbr 1000 ------- 1 1.0 2.0 156 156
r 0.236278 1 2 cbr 1000 ------- 1 1.0 2.0 142 142
+ 0.236522 1 2 cbr 1000 ------- 1 1.0 2.0 157 157
- 0.236522 1 2 cbr 1000 ------- 1 1.0 2.0 157 157
r 0.237148 1 2 cbr 1000 ------- 1 1.0 2.0 143 143
+ 0.237391 1 2 cbr 1000 ------- 1 1.0 2.0 158 158
- 0.237391 1 2 cbr 1000 ------- 1 1.0 2.0 158 158
r 0.238017 1 2 cbr 1000 ------- 1 1.0 2.0 144 144
+ 0.238261 1 2 cbr 1000 ------- 1 1.0 2.0 159 159
- 0.238261 1 2 cbr 1000 ------- 1 1.0 2.0 159 159
r 0.238887 1 2 cbr 1000 ------- 1 1.0 2.0 145 145
+ 0.23913 1 2 cbr 1000 ------- 1 1.0 2.0 160 160
- 0.23913 1 2 cbr 1000 ------- 1 1.0 2.0 160 160
r 0.239757 1 2 cbr 1000 ------- 1 1.0 2.0 146 146
+ 0.24 1 2 cbr 1000 ------- 1 1.0 2.0 161 161
- 0.24 1 2 cbr 1000 ------- 1 1.0 2.0 161 161
r 0.240626 1 2 cbr 1000 ------- 1 1.0 2.0 147 147
+ 0.24087 1 2 cbr 1000 ------- 1 1.0 2.0 162 162
- 0.24087 1 2 cbr 1000 ------- 1 1.0 2.0 162 162
r 0.241496 1 2 cbr 1000 ------- 1 1.0 2.0 148 148
+ 0.241739 1 2 cbr 1000 ------- 1 1.0 2.0 163 163
- 0.241739 1 2 cbr 1000 ------- 1 1.0 2.0 163 163
r 0.242365 1 2 cbr 1000 ------- 1 1.0 2.0 149 149
+ 0.242609 1 2 cbr 1000 ------- 1 1.0 2.0 164 164
- 0.242609 1 2 cbr 1000 ------- 1 1.0 2.0 164 164
r 0.243235 1 2 cbr 1000 ------- 1 1.0 2.0 150 150
+ 0.243478 1 2 cbr 1000 ------- 1 1.0 2.0 165 165
- 0.243478 1 2 cbr 1000 ------- 1 1.0 2.0 165 165
r 0.244104 1 2 cbr 1000 ------- 1 1.0 2.0 151 151
+ 0.244348 1 2 cbr 1000 ------- 1 1.0 2.0 166 166
- 0.244348 1 2 cbr 1000 ------- 1 1.0 2.0 166 166
r 0.244974 1 2 cbr 1000 ------- 1 1.0 2.0 152 152
+ 0.245217 1 2 cbr 1000 ------- 1 1.0 2.0 167 167
- 0.245217 1 2 cbr 1000 ------- 1 1.0 2.0 167 167
r 0.245843 1 2 cbr 1000 ------- 1 1.0 2.0 153 153
+ 0.246087 1 2 cbr 1000 ------- 1 1.0 2.0 168 168
- 0.246087 1 2 cbr 1000 ------- 1 1.0 2.0 168 168
r 0.246713 1 2 cbr 1000 ------- 1 1.0 2.0 154 154
+ 0.246957 1 2 cbr 1000 ------- 1 1.0 2.0 169 169
- 0.246957 1 2 cbr 1000 ------- 1 1.0 2.0 169 169
r 0.247583 1 2 cbr 1000 ------- 1 1.0 2.0 155 155
+ 0.247826 1 2 cbr 1000 ------- 1 1.0 2.0 170 170
- 0.247826 1 2 cbr 1000 ------- 1 1.0 2.0 170 170
r 0.248452 1 2 cbr 1000 ------- 1 1.0 2.0 156 156
+ 0.248696 1 2 cbr 1000 ------- 1 1.0 2.0 171 171
- 0.248696 1 2 cbr 1000 ------- 1 1.0 2.0 171 171
r 0.249322 1 2 cbr 1000 ------- 1 1.0 2.0 157 157
+ 0.249565 1 2 cbr 1000 ------- 1 1.0 2.0 172 172
- 0.249565 1 2 cbr 1000 ------- 1 1.0 2.0 172 172
r 0.250191 1 2 cbr 1000 ------- 1 1.0 2.0 158 158
+ 0.250435 1 2 cbr 1000 ------- 1 1.0 2.0 173 173
- 0.250435 1 2 cbr 1000 ------- 1 1.0 2.0 173 173
r 0.251061 1 2 cbr 1000 ------- 1 1.0 2.0 159 159
+ 0.251304 1 2 cbr 1000 ------- 1 1.0 2.0 174 174
- 0.251304 1 2 cbr 1000 ------- 1 1.0 2.0 174 174
r 0.25193 1 2 cbr 1000 ------- 1 1.0 2.0 160 160
+ 0.252174 1 2 cbr 1000 ------- 1 1.0 2.0 175 175
- 0.252174 1 2 cbr 1000 ------- 1 1.0 2.0 175 175
r 0.2528 1 2 cbr 1000 ------- 1 1.0 2.0 161 161
+ 0.253043 1 2 cbr 1000 ------- 1 1.0 2.0 176 176
- 0.253043 1 2 cbr 1000 ------- 1 1.0 2.0 176 176
r 0.25367 1 2 cbr 1000 ------- 1 1.0 2.0 162 162
+ 0.253913 1 2 cbr 1000 ------- 1 1.0 2.0 177 177
- 0.253913 1 2 cbr 1000 ------- 1 1.0 2.0 177 177
r 0.254539 1 2 cbr 1000 ------- 1 1.0 2.0 163 163
+ 0.254783 1 2 cbr 1000 ------- 1 1.0 2.0 178 178
- 0.254783 1 2 cbr 1000 ------- 1 1.0 2.0 178 178
r 0.255409 1 2 cbr 1000 ------- 1 1.0 2.0 164 164
+ 0.255652 1 2 cbr 1000 ------- 1 1.0 2.0 179 179
- 0.255652 1 2 cbr 1000 ------- 1 1.0 2.0 179 179
r 0.256278 1 2 cbr 1000 ------- 1 1.0 2.0 165 165
+ 0.256522 1 2 cbr 1000 ------- 1 1.0 2.0 180 180
- 0.256522 1 2 cbr 1000 ------- 1 1.0 2.0 180 180
r 0.257148 1 2 cbr 1000 ------- 1 1.0 2.0 166 166
+ 0.257391 1 2 cbr 1000 ------- 1 1.0 2.0 181 181
- 0.257391 1 2 cbr 1000 ------- 1 1.0 2.0 181 181
r 0.258017 1 2 cbr 1000 ------- 1 1.0 2.0 167 167
+ 0.258261 1 2 cbr 1000 ------- 1 1.0 2.0 182 182
- 0.258261 1 2 cbr 1000 ------- 1 1.0 2.0 182 182
r 0.258887 1 2 cbr 1000 ------- 1 1.0 2.0 168 168
+ 0.25913 1 2 cbr 1000 ------- 1 1.0 2.0 183 183
- 0.25913 1 2 cbr 1000 ------- 1 1.0 2.0 183 183
r 0.259757 1 2 cbr 1000 ------- 1 1.0 2.0 169 169
+ 0.26 1 2 cbr 1000 ------- 1 1.0 2.0 184 184
- 0.26 1 2 cbr 1000 ------- 1 1.0 2.0 184 184
r 0.260626 1 2 cbr 1000 ------- 1 1.0 2.0 170 170
+ 0.26087 1 2 cbr 1000 ------- 1 1.0 2.0 185 185
- 0.26087 1 2 cbr 1000 ------- 1 1.0 2.0 185 185
r 0.261496 1 2 cbr 1000 ------- 1 1.0 2.0 171 171
+ 0.261739 1 2 cbr 1000 ------- 1 1.0 2.0 186 186
- 0.261739 1 2 cbr 1000 ------- 1 1.0 2.0 186 186
r 0.262365 1 2 cbr 1000 ------- 1 1.0 2.0 172 172
+ 0.262609 1 2 cbr 1000 ------- 1 1.0 2.0 187 187
- 0.262609 1 2 cbr 1000 ------- 1 1.0 2.0 187 187
r 0.263235 1 2 cbr 1000 ------- 1 1.0 2.0 173 173
+ 0.263478 1 2 cbr 1000 ------- 1 1.0 2.0 188 188
- 0.263478 1 2 cbr 1000 ------- 1 1.0 2.0 188 188
r 0.264104 1 2 cbr 1000 ------- 1 1.0 2.0 174 174
+ 0.264348 1 2 cbr 1000 ------- 1 1.0 2.0 189 189
- 0.264348 1 2 cbr 1000 ------- 1 1.0 2.0 189 189
r 0.264974 1 2 cbr 1000 ------- 1 1.0 2.0 175 175
+ 0.265217 1 2 cbr 1000 ------- 1 1.0 2.0 190 190
- 0.265217 1 2 cbr 1000 ------- 1 1.0 2.0 190 190
r 0.265843 1 2 cbr 1000 ------- 1 1.0 2.0 176 176
+ 0.266087 1 2 cbr 1000 ------- 1 1.0 2.0 191 191
- 0.266087 1 2 cbr 1000 ------- 1 1.0 2.0 191 191
r 0.266713 1 2 cbr 1000 ------- 1 1.0 2.0 177 177
+ 0.266957 1 2 cbr 1000 ------- 1 1.0 2.0 192 192
- 0.266957 1 2 cbr 1000 ------- 1 1.0 2.0 192 192
r 0.267583 1 2 cbr 1000 ------- 1 1.0 2.0 178 178
+ 0.267826 1 2 cbr 1000 ------- 1 1.0 2.0 193 193
- 0.267826 1 2 cbr 1000 ------- 1 1.0 2.0 193 193
r 0.268452 1 2 cbr 1000 ------- 1 1.0 2.0 179 179
+ 0.268696 1 2 cbr 1000 ------- 1 1.0 2.0 194 194
- 0.268696 1 2 cbr 1000 ------- 1 1.0 2.0 194 194
r 0.269322 1 2 cbr 1000 ------- 1 1.0 2.0 180 180
+ 0.269565 1 2 cbr 1000 ------- 1 1.0 2.0 195 195
- 0.269565 1 2 cbr 1000 ------- 1 1.0 2.0 195 195
r 0.270191 1 2 cbr 1000 ------- 1 1.0 2.0 181 181
+ 0.270435 1 2 cbr 1000 ------- 1 1.0 2.0 196 196
- 0.270435 1 2 cbr 1000 ------- 1 1.0 2.0 196 196
r 0.271061 1 2 cbr 1000 ------- 1 1.0 2.0 182 182
+ 0.271304 1 2 cbr 1000 ------- 1 1.0 2.0 197 197
- 0.271304 1 2 cbr 1000 ------- 1 1.0 2.0 197 197
r 0.27193 1 2 cbr 1000 ------- 1 1.0 2.0 183 183
+ 0.272174 1 2 cbr 1000 ------- 1 1.0 2.0 198 198
- 0.272174 1 2 cbr 1000 ------- 1 1.0 2.0 198 198
r 0.2728 1 2 cbr 1000 ------- 1 1.0 2.0 184 184
+ 0.273043 1 2 cbr 1000 ------- 1 1.0 2.0 199 199
- 0.273043 1 2 cbr 1000 ------- 1 1.0 2.0 199 199
r 0.27367 1 2 cbr 1000 ------- 1 1.0 2.0 185 185
+ 0.273913 1 2 cbr 1000 ------- 1 1.0 2.0 200 200
- 0.273913 1 2 cbr 1000 ------- 1 1.0 2.0 200 200
r 0.274539 1 2 cbr 1000 ------- 1 1.0 2.0 186 186
+ 0.274783 1 2 cbr 1000 ------- 1 1.0 2.0 201 201
- 0.274783 1 2 cbr 1000 ------- 1 1.0 2.0 201 201
r 0.275409 1 2 cbr 1000 ------- 1 1.0 2.0 187 187
+ 0.275652 1 2 cbr 1000 ------- 1 1.0 2.0 202 202
- 0.275652 1 2 cbr 1000 ------- 1 1.0 2.0 202 202
r 0.276278 1 2 cbr 1000 ------- 1 1.0 2.0 188 188
+ 0.276522 1 2 cbr 1000 ------- 1 1.0 2.0 203 203
- 0.276522 1 2 cbr 1000 ------- 1 1.0 2.0 203 203
r 0.277148 1 2 cbr 1000 ------- 1 1.0 2.0 189 189
+ 0.277391 1 2 cbr 1000 ------- 1 1.0 2.0 204 204
- 0.277391 1 2 cbr 1000 ------- 1 1.0 2.0 204 204
r 0.278017 1 2 cbr 1000 ------- 1 1.0 2.0 190 190
+ 0.278261 1 2 cbr 1000 ------- 1 1.0 2.0 205 205
- 0.278261 1 2 cbr 1000 ------- 1 1.0 2.0 205 205
r 0.278887 1 2 cbr 1000 ------- 1 1.0 2.0 191 191
+ 0.27913 1 2 cbr 1000 ------- 1 1.0 2.0 206 206
- 0.27913 1 2 cbr 1000 ------- 1 1.0 2.0 206 206
r 0.279757 1 2 cbr 1000 ------- 1 1.0 2.0 192 192
+ 0.28 1 2 cbr 1000 ------- 1 1.0 2.0 207 207
- 0.28 1 2 cbr 1000 ------- 1 1.0 2.0 207 207
r 0.280626 1 2 cbr 1000 ------- 1 1.0 2.0 193 193
+ 0.28087 1 2 cbr 1000 ------- 1 1.0 2.0 208 208
- 0.28087 1 2 cbr 1000 ------- 1 1.0 2.0 208 208
r 0.281496 1 2 cbr 1000 ------- 1 1.0 2.0 194 194
+ 0.281739 1 2 cbr 1000 ------- 1 1.0 2.0 209 209
- 0.281739 1 2 cbr 1000 ------- 1 1.0 2.0 209 209
r 0.282365 1 2 cbr 1000 ------- 1 1.0 2.0 195 195