+ 0.1 1 2 cbr 1000 ------- 1 1.0 2.0 0 0
- 0.1 1 2 cbr 1000 ------- 1 1.0 2.0 0 0
+ 0.100851 1 2 cbr 1000 ------- 1 1.0 2.0 1 1
- 0.100851 1 2 cbr 1000 ------- 1 1.0 2.0 1 1
+ 0.101702 1 2 cbr 1000 ------- 1 1.0 2.0 2 2
- 0.101702 1 2 cbr 1000 ------- 1 1.0 2.0 2 2
+ 0.102553 1 2 cbr 1000 ------- 1 1.0 2.0 3 3
- 0.102553 1 2 cbr 1000 ------- 1 1.0 2.0 3 3
+ 0.103404 1 2 cbr 1000 ------- 1 1.0 2.0 4 4
- 0.103404 1 2 cbr 1000 ------- 1 1.0 2.0 4 4
+ 0.104255 1 2 cbr 1000 ------- 1 1.0 2.0 5 5
- 0.104255 1 2 cbr 1000 ------- 1 1.0 2.0 5 5
+ 0.105106 1 2 cbr 1000 ------- 1 1.0 2.0 6 6
- 0.105106 1 2 cbr 1000 ------- 1 1.0 2.0 6 6
+ 0.105957 1 2 cbr 1000 ------- 1 1.0 2.0 7 7
- 0.105957 1 2 cbr 1000 ------- 1 1.0 2.0 7 7
+ 0.106809 1 2 cbr 1000 ------- 1 1.0 2.0 8 8
- 0.106809 1 2 cbr 1000 ------- 1 1.0 2.0 8 8
+ 0.10766 1 2 cbr 1000 ------- 1 1.0 2.0 9 9
- 0.10766 1 2 cbr 1000 ------- 1 1.0 2.0 9 9
+ 0.108511 1 2 cbr 1000 ------- 1 1.0 2.0 10 10
- 0.108511 1 2 cbr 1000 ------- 1 1.0 2.0 10 10
+ 0.109362 1 2 cbr 1000 ------- 1 1.0 2.0 11 11
- 0.109362 1 2 cbr 1000 ------- 1 1.0 2.0 11 11
+ 0.110213 1 2 cbr 1000 ------- 1 1.0 2.0 12 12
- 0.110213 1 2 cbr 1000 ------- 1 1.0 2.0 12 12
+ 0.111064 1 2 cbr 1000 ------- 1 1.0 2.0 13 13
- 0.111064 1 2 cbr 1000 ------- 1 1.0 2.0 13 13
+ 0.111915 1 2 cbr 1000 ------- 1 1.0 2.0 14 14
- 0.111915 1 2 cbr 1000 ------- 1 1.0 2.0 14 14
+ 0.112766 1 2 cbr 1000 ------- 1 1.0 2.0 15 15
- 0.112766 1 2 cbr 1000 ------- 1 1.0 2.0 15 15
r 0.1128 1 2 cbr 1000 ------- 1 1.0 2.0 0 0
+ 0.113617 1 2 cbr 1000 ------- 1 1.0 2.0 16 16
- 0.113617 1 2 cbr 1000 ------- 1 1.0 2.0 16 16
r 0.113651 1 2 cbr 1000 ------- 1 1.0 2.0 1 1
+ 0.114468 1 2 cbr 1000 ------- 1 1.0 2.0 17 17
- 0.114468 1 2 cbr 1000 ------- 1 1.0 2.0 17 17
r 0.114502 1 2 cbr 1000 ------- 1 1.0 2.0 2 2
+ 0.115319 1 2 cbr 1000 ------- 1 1.0 2.0 18 18
- 0.115319 1 2 cbr 1000 ------- 1 1.0 2.0 18 18
r 0.115353 1 2 cbr 1000 ------- 1 1.0 2.0 3 3
+ 0.11617 1 2 cbr 1000 ------- 1 1.0 2.0 19 19
- 0.11617 1 2 cbr 1000 ------- 1 1.0 2.0 19 19
r 0.116204 1 2 cbr 1000 ------- 1 1.0 2.0 4 4
+ 0.117021 1 2 cbr 1000 ------- 1 1.0 2.0 20 20
- 0.117021 1 2 cbr 1000 ------- 1 1.0 2.0 20 20
r 0.117055 1 2 cbr 1000 ------- 1 1.0 2.0 5 5
+ 0.117872 1 2 cbr 1000 ------- 1 1.0 2.0 21 21
- 0.117872 1 2 cbr 1000 ------- 1 1.0 2.0 21 21
r 0.117906 1 2 cbr 1000 ------- 1 1.0 2.0 6 6
+ 0.118723 1 2 cbr 1000 ------- 1 1.0 2.0 22 22
- 0.118723 1 2 cbr 1000 ------- 1 1.0 2.0 22 22
r 0.118757 1 2 cbr 1000 ------- 1 1.0 2.0 7 7
+ 0.119574 1 2 cbr 1000 ------- 1 1.0 2.0 23 23
- 0.119574 1 2 cbr 1000 ------- 1 1.0 2.0 23 23
r 0.119609 1 2 cbr 1000 ------- 1 1.0 2.0 8 8
+ 0.120426 1 2 cbr 1000 ------- 1 1.0 2.0 24 24
- 0.120426 1 2 cbr 1000 ------- 1 1.0 2.0 24 24
r 0.12046 1 2 cbr 1000 ------- 1 1.0 2.0 9 9
+ 0.121277 1 2 cbr 1000 ------- 1 1.0 2.0 25 25
- 0.121277 1 2 cbr 1000 ------- 1 1.0 2.0 25 25
r 0.121311 1 2 cbr 1000 ------- 1 1.0 2.0 10 10
+ 0.122128 1 2 cbr 1000 ------- 1 1.0 2.0 26 26
- 0.122128 1 2 cbr 1000 ------- 1 1.0 2.0 26 26
r 0.122162 1 2 cbr 1000 ------- 1 1.0 2.0 11 11
+ 0.122979 1 2 cbr 1000 ------- 1 1.0 2.0 27 27
- 0.122979 1 2 cbr 1000 ------- 1 1.0 2.0 27 27
r 0.123013 1 2 cbr 1000 ------- 1 1.0 2.0 12 12
+ 0.12383 1 2 cbr 1000 ------- 1 1.0 2.0 28 28
- 0.12383 1 2 cbr 1000 ------- 1 1.0 2.0 28 28
r 0.123864 1 2 cbr 1000 ------- 1 1.0 2.0 13 13
+ 0.124681 1 2 cbr 1000 ------- 1 1.0 2.0 29 29
- 0.124681 1 2 cbr 1000 ------- 1 1.0 2.0 29 29
r 0.124715 1 2 cbr 1000 ------- 1 1.0 2.0 14 14
+ 0.125532 1 2 cbr 1000 ------- 1 1.0 2.0 30 30
- 0.125532 1 2 cbr 1000 ------- 1 1.0 2.0 30 30
r 0.125566 1 2 cbr 1000 ------- 1 1.0 2.0 15 15
+ 0.126383 1 2 cbr 1000 ------- 1 1.0 2.0 31 31
- 0.126383 1 2 cbr 1000 ------- 1 1.0 2.0 31 31
r 0.126417 1 2 cbr 1000 ------- 1 1.0 2.0 16 16
+ 0.127234 1 2 cbr 1000 ------- 1 1.0 2.0 32 32
- 0.127234 1 2 cbr 1000 ------- 1 1.0 2.0 32 32
r 0.127268 1 2 cbr 1000 ------- 1 1.0 2.0 17 17
+ 0.128085 1 2 cbr 1000 ------- 1 1.0 2.0 33 33
- 0.128085 1 2 cbr 1000 ------- 1 1.0 2.0 33 33
r 0.128119 1 2 cbr 1000 ------- 1 1.0 2.0 18 18
+ 0.128936 1 2 cbr 1000 ------- 1 1.0 2.0 34 34
- 0.128936 1 2 cbr 1000 ------- 1 1.0 2.0 34 34
r 0.12897 1 2 cbr 1000 ------- 1 1.0 2.0 19 19
+ 0.129787 1 2 cbr 1000 ------- 1 1.0 2.0 35 35
- 0.129787 1 2 cbr 1000 ------- 1 1.0 2.0 35 35
r 0.129821 1 2 cbr 1000 ------- 1 1.0 2.0 20 20
+ 0.130638 1 2 cbr 1000 ------- 1 1.0 2.0 36 36
- 0.130638 1 2 cbr 1000 ------- 1 1.0 2.0 36 36
r 0.130672 1 2 cbr 1000 ------- 1 1.0 2.0 21 21
+ 0.131489 1 2 cbr 1000 ------- 1 1.0 2.0 37 37
- 0.131489 1 2 cbr 1000 ------- 1 1.0 2.0 37 37
r 0.131523 1 2 cbr 1000 ------- 1 1.0 2.0 22 22
+ 0.13234 1 2 cbr 1000 ------- 1 1.0 2.0 38 38
- 0.13234 1 2 cbr 1000 ------- 1 1.0 2.0 38 38
r 0.132374 1 2 cbr 1000 ------- 1 1.0 2.0 23 23
+ 0.133191 1 2 cbr 1000 ------- 1 1.0 2.0 39 39
- 0.133191 1 2 cbr 1000 ------- 1 1.0 2.0 39 39
r 0.133226 1 2 cbr 1000 ------- 1 1.0 2.0 24 24
+ 0.134043 1 2 cbr 1000 ------- 1 1.0 2.0 40 40
- 0.134043 1 2 cbr 1000 ------- 1 1.0 2.0 40 40
r 0.134077 1 2 cbr 1000 ------- 1 1.0 2.0 25 25
+ 0.134894 1 2 cbr 1000 ------- 1 1.0 2.0 41 41
- 0.134894 1 2 cbr 1000 ------- 1 1.0 2.0 41 41
r 0.134928 1 2 cbr 1000 ------- 1 1.0 2.0 26 26
+ 0.135745 1 2 cbr 1000 ------- 1 1.0 2.0 42 42
- 0.135745 1 2 cbr 1000 ------- 1 1.0 2.0 42 42
r 0.135779 1 2 cbr 1000 ------- 1 1.0 2.0 27 27
+ 0.136596 1 2 cbr 1000 ------- 1 1.0 2.0 43 43
- 0.136596 1 2 cbr 1000 ------- 1 1.0 2.0 43 43
r 0.13663 1 2 cbr 1000 ------- 1 1.0 2.0 28 28
+ 0.137447 1 2 cbr 1000 ------- 1 1.0 2.0 44 44
- 0.137447 1 2 cbr 1000 ------- 1 1.0 2.0 44 44
r 0.137481 1 2 cbr 1000 ------- 1 1.0 2.0 29 29
+ 0.138298 1 2 cbr 1000 ------- 1 1.0 2.0 45 45
- 0.138298 1 2 cbr 1000 ------- 1 1.0 2.0 45 45
r 0.138332 1 2 cbr 1000 ------- 1 1.0 2.0 30 30
+ 0.139149 1 2 cbr 1000 ------- 1 1.0 2.0 46 46
- 0.139149 1 2 cbr 1000 ------- 1 1.0 2.0 46 46
r 0.139183 1 2 cbr 1000 ------- 1 1.0 2.0 31 31
+ 0.14 1 2 cbr 1000 ------- 1 1.0 2.0 47 47
- 0.14 1 2 cbr 1000 ------- 1 1.0 2.0 47 47
r 0.140034 1 2 cbr 1000 ------- 1 1.0 2.0 32 32
+ 0.140851 1 2 cbr 1000 ------- 1 1.0 2.0 48 48
- 0.140851 1 2 cbr 1000 ------- 1 1.0 2.0 48 48
r 0.140885 1 2 cbr 1000 ------- 1 1.0 2.0 33 33
+ 0.141702 1 2 cbr 1000 ------- 1 1.0 2.0 49 49
- 0.141702 1 2 cbr 1000 ------- 1 1.0 2.0 49 49
r 0.141736 1 2 cbr 1000 ------- 1 1.0 2.0 34 34
+ 0.142553 1 2 cbr 1000 ------- 1 1.0 2.0 50 50
- 0.142553 1 2 cbr 1000 ------- 1 1.0 2.0 50 50
r 0.142587 1 2 cbr 1000 ------- 1 1.0 2.0 35 35
+ 0.143404 1 2 cbr 1000 ------- 1 1.0 2.0 51 51
- 0.143404 1 2 cbr 1000 ------- 1 1.0 2.0 51 51
r 0.143438 1 2 cbr 1000 ------- 1 1.0 2.0 36 36
+ 0.144255 1 2 cbr 1000 ------- 1 1.0 2.0 52 52
- 0.144255 1 2 cbr 1000 ------- 1 1.0 2.0 52 52
r 0.144289 1 2 cbr 1000 ------- 1 1.0 2.0 37 37
+ 0.145106 1 2 cbr 1000 ------- 1 1.0 2.0 53 53
- 0.145106 1 2 cbr 1000 ------- 1 1.0 2.0 53 53
r 0.14514 1 2 cbr 1000 ------- 1 1.0 2.0 38 38
+ 0.145957 1 2 cbr 1000 ------- 1 1.0 2.0 54 54
- 0.145957 1 2 cbr 1000 ------- 1 1.0 2.0 54 54
r 0.145991 1 2 cbr 1000 ------- 1 1.0 2.0 39 39
+ 0.146809 1 2 cbr 1000 ------- 1 1.0 2.0 55 55
- 0.146809 1 2 cbr 1000 ------- 1 1.0 2.0 55 55
r 0.146843 1 2 cbr 1000 ------- 1 1.0 2.0 40 40
+ 0.14766 1 2 cbr 1000 ------- 1 1.0 2.0 56 56
- 0.14766 1 2 cbr 1000 ------- 1 1.0 2.0 56 56
r 0.147694 1 2 cbr 1000 ------- 1 1.0 2.0 41 41
+ 0.148511 1 2 cbr 1000 ------- 1 1.0 2.0 57 57
- 0.148511 1 2 cbr 1000 ------- 1 1.0 2.0 57 57
r 0.148545 1 2 cbr 1000 ------- 1 1.0 2.0 42 42
+ 0.149362 1 2 cbr 1000 ------- 1 1.0 2.0 58 58
- 0.149362 1 2 cbr 1000 ------- 1 1.0 2.0 58 58
r 0.149396 1 2 cbr 1000 ------- 1 1.0 2.0 43 43
+ 0.150213 1 2 cbr 1000 ------- 1 1.0 2.0 59 59
- 0.150213 1 2 cbr 1000 ------- 1 1.0 2.0 59 59
r 0.150247 1 2 cbr 1000 ------- 1 1.0 2.0 44 44
+ 0.151064 1 2 cbr 1000 ------- 1 1.0 2.0 60 60
- 0.151064 1 2 cbr 1000 ------- 1 1.0 2.0 60 60
r 0.151098 1 2 cbr 1000 ------- 1 1.0 2.0 45 45
+ 0.151915 1 2 cbr 1000 ------- 1 1.0 2.0 61 61
- 0.151915 1 2 cbr 1000 ------- 1 1.0 2.0 61 61
r 0.151949 1 2 cbr 1000 ------- 1 1.0 2.0 46 46
+ 0.152766 1 2 cbr 1000 ------- 1 1.0 2.0 62 62
- 0.152766 1 2 cbr 1000 ------- 1 1.0 2.0 62 62
r 0.1528 1 2 cbr 1000 ------- 1 1.0 2.0 47 47
+ 0.153617 1 2 cbr 1000 ------- 1 1.0 2.0 63 63
- 0.153617 1 2 cbr 1000 ------- 1 1.0 2.0 63 63
r 0.153651 1 2 cbr 1000 ------- 1 1.0 2.0 48 48
+ 0.154468 1 2 cbr 1000 ------- 1 1.0 2.0 64 64
- 0.154468 1 2 cbr 1000 ------- 1 1.0 2.0 64 64
r 0.154502 1 2 cbr 1000 ------- 1 1.0 2.0 49 49
+ 0.155319 1 2 cbr 1000 ------- 1 1.0 2.0 65 65
- 0.155319 1 2 cbr 1000 ------- 1 1.0 2.0 65 65
r 0.155353 1 2 cbr 1000 ------- 1 1.0 2.0 50 50
+ 0.15617 1 2 cbr 1000 ------- 1 1.0 2.0 66 66
- 0.15617 1 2 cbr 1000 ------- 1 1.0 2.0 66 66
r 0.156204 1 2 cbr 1000 ------- 1 1.0 2.0 51 51
+ 0.157021 1 2 cbr 1000 ------- 1 1.0 2.0 67 67
- 0.157021 1 2 cbr 1000 ------- 1 1.0 2.0 67 67
r 0.157055 1 2 cbr 1000 ------- 1 1.0 2.0 52 52
+ 0.157872 1 2 cbr 1000 ------- 1 1.0 2.0 68 68
- 0.157872 1 2 cbr 1000 ------- 1 1.0 2.0 68 68
r 0.157906 1 2 cbr 1000 ------- 1 1.0 2.0 53 53
+ 0.158723 1 2 cbr 1000 ------- 1 1.0 2.0 69 69
- 0.158723 1 2 cbr 1000 ------- 1 1.0 2.0 69 69
r 0.158757 1 2 cbr 1000 ------- 1 1.0 2.0 54 54
+ 0.159574 1 2 cbr 1000 ------- 1 1.0 2.0 70 70
- 0.159574 1 2 cbr 1000 ------- 1 1.0 2.0 70 70
r 0.159609 1 2 cbr 1000 ------- 1 1.0 2.0 55 55
+ 0.160426 1 2 cbr 1000 ------- 1 1.0 2.0 71 71
- 0.160426 1 2 cbr 1000 ------- 1 1.0 2.0 71 71
r 0.16046 1 2 cbr 1000 ------- 1 1.0 2.0 56 56
+ 0.161277 1 2 cbr 1000 ------- 1 1.0 2.0 72 72
- 0.161277 1 2 cbr 1000 ------- 1 1.0 2.0 72 72
r 0.161311 1 2 cbr 1000 ------- 1 1.0 2.0 57 57
+ 0.162128 1 2 cbr 1000 ------- 1 1.0 2.0 73 73
- 0.162128 1 2 cbr 1000 ------- 1 1.0 2.0 73 73
r 0.162162 1 2 cbr 1000 ------- 1 1.0 2.0 58 58
+ 0.162979 1 2 cbr 1000 ------- 1 1.0 2.0 74 74
- 0.162979 1 2 cbr 1000 ------- 1 1.0 2.0 74 74
r 0.163013 1 2 cbr 1000 ------- 1 1.0 2.0 59 59
+ 0.16383 1 2 cbr 1000 ------- 1 1.0 2.0 75 75
- 0.16383 1 2 cbr 1000 ------- 1 1.0 2.0 75 75
r 0.163864 1 2 cbr 1000 ------- 1 1.0 2.0 60 60
+ 0.164681 1 2 cbr 1000 ------- 1 1.0 2.0 76 76
- 0.164681 1 2 cbr 1000 ------- 1 1.0 2.0 76 76
r 0.164715 1 2 cbr 1000 ------- 1 1.0 2.0 61 61
+ 0.165532 1 2 cbr 1000 ------- 1 1.0 2.0 77 77
- 0.165532 1 2 cbr 1000 ------- 1 1.0 2.0 77 77
r 0.165566 1 2 cbr 1000 ------- 1 1.0 2.0 62 62
+ 0.166383 1 2 cbr 1000 ------- 1 1.0 2.0 78 78
- 0.166383 1 2 cbr 1000 ------- 1 1.0 2.0 78 78
r 0.166417 1 2 cbr 1000 ------- 1 1.0 2.0 63 63
+ 0.167234 1 2 cbr 1000 ------- 1 1.0 2.0 79 79
- 0.167234 1 2 cbr 1000 ------- 1 1.0 2.0 79 79
r 0.167268 1 2 cbr 1000 ------- 1 1.0 2.0 64 64
+ 0.168085 1 2 cbr 1000 ------- 1 1.0 2.0 80 80
- 0.168085 1 2 cbr 1000 ------- 1 1.0 2.0 80 80
r 0.168119 1 2 cbr 1000 ------- 1 1.0 2.0 65 65
+ 0.168936 1 2 cbr 1000 ------- 1 1.0 2.0 81 81
- 0.168936 1 2 cbr 1000 ------- 1 1.0 2.0 81 81
r 0.16897 1 2 cbr 1000 ------- 1 1.0 2.0 66 66
+ 0.169787 1 2 cbr 1000 ------- 1 1.0 2.0 82 82
- 0.169787 1 2 cbr 1000 ------- 1 1.0 2.0 82 82
r 0.169821 1 2 cbr 1000 ------- 1 1.0 2.0 67 67
+ 0.170638 1 2 cbr 1000 ------- 1 1.0 2.0 83 83
- 0.170638 1 2 cbr 1000 ------- 1 1.0 2.0 83 83
r 0.170672 1 2 cbr 1000 ------- 1 1.0 2.0 68 68
+ 0.171489 1 2 cbr 1000 ------- 1 1.0 2.0 84 84
- 0.171489 1 2 cbr 1000 ------- 1 1.0 2.0 84 84
r 0.171523 1 2 cbr 1000 ------- 1 1.0 2.0 69 69
+ 0.17234 1 2 cbr 1000 ------- 1 1.0 2.0 85 85
- 0.17234 1 2 cbr 1000 ------- 1 1.0 2.0 85 85
r 0.172374 1 2 cbr 1000 ------- 1 1.0 2.0 70 70
+ 0.173191 1 2 cbr 1000 ------- 1 1.0 2.0 86 86
- 0.173191 1 2 cbr 1000 ------- 1 1.0 2.0 86 86
r 0.173226 1 2 cbr 1000 ------- 1 1.0 2.0 71 71
+ 0.174043 1 2 cbr 1000 ------- 1 1.0 2.0 87 87
- 0.174043 1 2 cbr 1000 ------- 1 1.0 2.0 87 87
r 0.174077 1 2 cbr 1000 ------- 1 1.0 2.0 72 72
+ 0.174894 1 2 cbr 1000 ------- 1 1.0 2.0 88 88
- 0.174894 1 2 cbr 1000 ------- 1 1.0 2.0 88 88
r 0.174928 1 2 cbr 1000 ------- 1 1.0 2.0 73 73
+ 0.175745 1 2 cbr 1000 ------- 1 1.0 2.0 89 89
- 0.175745 1 2 cbr 1000 ------- 1 1.0 2.0 89 89
r 0.175779 1 2 cbr 1000 ------- 1 1.0 2.0 74 74
+ 0.176596 1 2 cbr 1000 ------- 1 1.0 2.0 90 90
- 0.176596 1 2 cbr 1000 ------- 1 1.0 2.0 90 90
r 0.17663 1 2 cbr 1000 ------- 1 1.0 2.0 75 75
+ 0.177447 1 2 cbr 1000 ------- 1 1.0 2.0 91 91
- 0.177447 1 2 cbr 1000 ------- 1 1.0 2.0 91 91
r 0.177481 1 2 cbr 1000 ------- 1 1.0 2.0 76 76
+ 0.178298 1 2 cbr 1000 ------- 1 1.0 2.0 92 92
- 0.178298 1 2 cbr 1000 ------- 1 1.0 2.0 92 92
r 0.178332 1 2 cbr 1000 ------- 1 1.0 2.0 77 77
+ 0.179149 1 2 cbr 1000 ------- 1 1.0 2.0 93 93
- 0.179149 1 2 cbr 1000 ------- 1 1.0 2.0 93 93
r 0.179183 1 2 cbr 1000 ------- 1 1.0 2.0 78 78
+ 0.18 1 2 cbr 1000 ------- 1 1.0 2.0 94 94
- 0.18 1 2 cbr 1000 ------- 1 1.0 2.0 94 94
r 0.180034 1 2 cbr 1000 ------- 1 1.0 2.0 79 79
+ 0.180851 1 2 cbr 1000 ------- 1 1.0 2.0 95 95
- 0.180851 1 2 cbr 1000 ------- 1 1.0 2.0 95 95
r 0.180885 1 2 cbr 1000 ------- 1 1.0 2.0 80 80
+ 0.181702 1 2 cbr 1000 ------- 1 1.0 2.0 96 96
- 0.181702 1 2 cbr 1000 ------- 1 1.0 2.0 96 96
r 0.181736 1 2 cbr 1000 ------- 1 1.0 2.0 81 81
+ 0.182553 1 2 cbr 1000 ------- 1 1.0 2.0 97 97
- 0.182553 1 2 cbr 1000 ------- 1 1.0 2.0 97 97
r 0.182587 1 2 cbr 1000 ------- 1 1.0 2.0 82 82
+ 0.183404 1 2 cbr 1000 ------- 1 1.0 2.0 98 98
- 0.183404 1 2 cbr 1000 ------- 1 1.0 2.0 98 98
r 0.183438 1 2 cbr 1000 ------- 1 1.0 2.0 83 83
+ 0.184255 1 2 cbr 1000 ------- 1 1.0 2.0 99 99
- 0.184255 1 2 cbr 1000 ------- 1 1.0 2.0 99 99
r 0.184289 1 2 cbr 1000 ------- 1 1.0 2.0 84 84
+ 0.185106 1 2 cbr 1000 ------- 1 1.0 2.0 100 100
- 0.185106 1 2 cbr 1000 ------- 1 1.0 2.0 100 100
r 0.18514 1 2 cbr 1000 ------- 1 1.0 2.0 85 85
+ 0.185957 1 2 cbr 1000 ------- 1 1.0 2.0 101 101
- 0.185957 1 2 cbr 1000 ------- 1 1.0 2.0 101 101
r 0.185991 1 2 cbr 1000 ------- 1 1.0 2.0 86 86
+ 0.186809 1 2 cbr 1000 ------- 1 1.0 2.0 102 102
- 0.186809 1 2 cbr 1000 ------- 1 1.0 2.0 102 102
r 0.186843 1 2 cbr 1000 ------- 1 1.0 2.0 87 87
+ 0.18766 1 2 cbr 1000 ------- 1 1.0 2.0 103 103
- 0.18766 1 2 cbr 1000 ------- 1 1.0 2.0 103 103
r 0.187694 1 2 cbr 1000 ------- 1 1.0 2.0 88 88
+ 0.188511 1 2 cbr 1000 ------- 1 1.0 2.0 104 104
- 0.188511 1 2 cbr 1000 ------- 1 1.0 2.0 104 104
r 0.188545 1 2 cbr 1000 ------- 1 1.0 2.0 89 89
+ 0.189362 1 2 cbr 1000 ------- 1 1.0 2.0 105 105
- 0.189362 1 2 cbr 1000 ------- 1 1.0 2.0 105 105
r 0.189396 1 2 cbr 1000 ------- 1 1.0 2.0 90 90
+ 0.190213 1 2 cbr 1000 ------- 1 1.0 2.0 106 106
- 0.190213 1 2 cbr 1000 ------- 1 1.0 2.0 106 106
r 0.190247 1 2 cbr 1000 ------- 1 1.0 2.0 91 91
+ 0.191064 1 2 cbr 1000 ------- 1 1.0 2.0 107 107
- 0.191064 1 2 cbr 1000 ------- 1 1.0 2.0 107 107
r 0.191098 1 2 cbr 1000 ------- 1 1.0 2.0 92 92
+ 0.191915 1 2 cbr 1000 ------- 1 1.0 2.0 108 108
- 0.191915 1 2 cbr 1000 ------- 1 1.0 2.0 108 108
r 0.191949 1 2 cbr 1000 ------- 1 1.0 2.0 93 93
+ 0.192766 1 2 cbr 1000 ------- 1 1.0 2.0 109 109
- 0.192766 1 2 cbr 1000 ------- 1 1.0 2.0 109 109
r 0.1928 1 2 cbr 1000 ------- 1 1.0 2.0 94 94
+ 0.193617 1 2 cbr 1000 ------- 1 1.0 2.0 110 110
- 0.193617 1 2 cbr 1000 ------- 1 1.0 2.0 110 110
r 0.193651 1 2 cbr 1000 ------- 1 1.0 2.0 95 95
+ 0.194468 1 2 cbr 1000 ------- 1 1.0 2.0 111 111
- 0.194468 1 2 cbr 1000 ------- 1 1.0 2.0 111 111
r 0.194502 1 2 cbr 1000 ------- 1 1.0 2.0 96 96
+ 0.195319 1 2 cbr 1000 ------- 1 1.0 2.0 112 112
- 0.195319 1 2 cbr 1000 ------- 1 1.0 2.0 112 112
r 0.195353 1 2 cbr 1000 ------- 1 1.0 2.0 97 97
+ 0.19617 1 2 cbr 1000 ------- 1 1.0 2.0 113 113
- 0.19617 1 2 cbr 1000 ------- 1 1.0 2.0 113 113
r 0.196204 1 2 cbr 1000 ------- 1 1.0 2.0 98 98
+ 0.197021 1 2 cbr 1000 ------- 1 1.0 2.0 114 114
- 0.197021 1 2 cbr 1000 ------- 1 1.0 2.0 114 114
r 0.197055 1 2 cbr 1000 ------- 1 1.0 2.0 99 99
+ 0.197872 1 2 cbr 1000 ------- 1 1.0 2.0 115 115
- 0.197872 1 2 cbr 1000 ------- 1 1.0 2.0 115 115
r 0.197906 1 2 cbr 1000 ------- 1 1.0 2.0 100 100
+ 0.198723 1 2 cbr 1000 ------- 1 1.0 2.0 116 116
- 0.198723 1 2 cbr 1000 ------- 1 1.0 2.0 116 116
r 0.198757 1 2 cbr 1000 ------- 1 1.0 2.0 101 101
+ 0.199574 1 2 cbr 1000 ------- 1 1.0 2.0 117 117
- 0.199574 1 2 cbr 1000 ------- 1 1.0 2.0 117 117
r 0.199609 1 2 cbr 1000 ------- 1 1.0 2.0 102 102
+ 0.200426 1 2 cbr 1000 ------- 1 1.0 2.0 118 118
- 0.200426 1 2 cbr 1000 ------- 1 1.0 2.0 118 118
r 0.20046 1 2 cbr 1000 ------- 1 1.0 2.0 103 103
+ 0.201277 1 2 cbr 1000 ------- 1 1.0 2.0 119 119
- 0.201277 1 2 cbr 1000 ------- 1 1.0 2.0 119 119
r 0.201311 1 2 cbr 1000 ------- 1 1.0 2.0 104 104
+ 0.202128 1 2 cbr 1000 ------- 1 1.0 2.0 120 120
- 0.202128 1 2 cbr 1000 ------- 1 1.0 2.0 120 120
r 0.202162 1 2 cbr 1000 ------- 1 1.0 2.0 105 105
+ 0.202979 1 2 cbr 1000 ------- 1 1.0 2.0 121 121
- 0.202979 1 2 cbr 1000 ------- 1 1.0 2.0 121 121
r 0.203013 1 2 cbr 1000 ------- 1 1.0 2.0 106 106
+ 0.20383 1 2 cbr 1000 ------- 1 1.0 2.0 122 122
- 0.20383 1 2 cbr 1000 ------- 1 1.0 2.0 122 122
r 0.203864 1 2 cbr 1000 ------- 1 1.0 2.0 107 107
+ 0.204681 1 2 cbr 1000 ------- 1 1.0 2.0 123 123
- 0.204681 1 2 cbr 1000 ------- 1 1.0 2.0 123 123
r 0.204715 1 2 cbr 1000 ------- 1 1.0 2.0 108 108
+ 0.205532 1 2 cbr 1000 ------- 1 1.0 2.0 124 124
- 0.205532 1 2 cbr 1000 ------- 1 1.0 2.0 124 124
r 0.205566 1 2 cbr 1000 ------- 1 1.0 2.0 109 109
+ 0.206383 1 2 cbr 1000 ------- 1 1.0 2.0 125 125
- 0.206383 1 2 cbr 1000 ------- 1 1.0 2.0 125 125
r 0.206417 1 2 cbr 1000 ------- 1 1.0 2.0 110 110
+ 0.207234 1 2 cbr 1000 ------- 1 1.0 2.0 126 126
- 0.207234 1 2 cbr 1000 ------- 1 1.0 2.0 126 126
r 0.207268 1 2 cbr 1000 ------- 1 1.0 2.0 111 111
+ 0.208085 1 2 cbr 1000 ------- 1 1.0 2.0 127 127
- 0.208085 1 2 cbr 1000 ------- 1 1.0 2.0 127 127
r 0.208119 1 2 cbr 1000 ------- 1 1.0 2.0 112 112
+ 0.208936 1 2 cbr 1000 ------- 1 1.0 2.0 128 128
- 0.208936 1 2 cbr 1000 ------- 1 1.0 2.0 128 128
r 0.20897 1 2 cbr 1000 ------- 1 1.0 2.0 113 113
+ 0.209787 1 2 cbr 1000 ------- 1 1.0 2.0 129 129
- 0.209787 1 2 cbr 1000 ------- 1 1.0 2.0 129 129
r 0.209821 1 2 cbr 1000 ------- 1 1.0 2.0 114 114
+ 0.210638 1 2 cbr 1000 ------- 1 1.0 2.0 130 130
- 0.210638 1 2 cbr 1000 ------- 1 1.0 2.0 130 130
r 0.210672 1 2 cbr 1000 ------- 1 1.0 2.0 115 115
+ 0.211489 1 2 cbr 1000 ------- 1 1.0 2.0 131 131
- 0.211489 1 2 cbr 1000 ------- 1 1.0 2.0 131 131
r 0.211523 1 2 cbr 1000 ------- 1 1.0 2.0 116 116
+ 0.21234 1 2 cbr 1000 ------- 1 1.0 2.0 132 132
- 0.21234 1 2 cbr 1000 ------- 1 1.0 2.0 132 132
r 0.212374 1 2 cbr 1000 ------- 1 1.0 2.0 117 117
+ 0.213191 1 2 cbr 1000 ------- 1 1.0 2.0 133 133
- 0.213191 1 2 cbr 1000 ------- 1 1.0 2.0 133 133
r 0.213226 1 2 cbr 1000 ------- 1 1.0 2.0 118 118
+ 0.214043 1 2 cbr 1000 ------- 1 1.0 2.0 134 134
- 0.214043 1 2 cbr 1000 ------- 1 1.0 2.0 134 134
r 0.214077 1 2 cbr 1000 ------- 1 1.0 2.0 119 119
+ 0.214894 1 2 cbr 1000 ------- 1 1.0 2.0 135 135
- 0.214894 1 2 cbr 1000 ------- 1 1.0 2.0 135 135
r 0.214928 1 2 cbr 1000 ------- 1 1.0 2.0 120 120
+ 0.215745 1 2 cbr 1000 ------- 1 1.0 2.0 136 136
- 0.215745 1 2 cbr 1000 ------- 1 1.0 2.0 136 136
r 0.215779 1 2 cbr 1000 ------- 1 1.0 2.0 121 121
+ 0.216596 1 2 cbr 1000 ------- 1 1.0 2.0 137 137
- 0.216596 1 2 cbr 1000 ------- 1 1.0 2.0 137 137
r 0.21663 1 2 cbr 1000 ------- 1 1.0 2.0 122 122
+ 0.217447 1 2 cbr 1000 ------- 1 1.0 2.0 138 138
- 0.217447 1 2 cbr 1000 ------- 1 1.0 2.0 138 138
r 0.217481 1 2 cbr 1000 ------- 1 1.0 2.0 123 123
+ 0.218298 1 2 cbr 1000 ------- 1 1.0 2.0 139 139
- 0.218298 1 2 cbr 1000 ------- 1 1.0 2.0 139 139
r 0.218332 1 2 cbr 1000 ------- 1 1.0 2.0 124 124
+ 0.219149 1 2 cbr 1000 ------- 1 1.0 2.0 140 140
- 0.219149 1 2 cbr 1000 ------- 1 1.0 2.0 140 140
r 0.219183 1 2 cbr 1000 ------- 1 1.0 2.0 125 125
+ 0.22 1 2 cbr 1000 ------- 1 1.0 2.0 141 141
- 0.22 1 2 cbr 1000 ------- 1 1.0 2.0 141 141
r 0.220034 1 2 cbr 1000 ------- 1 1.0 2.0 126 126
+ 0.220851 1 2 cbr 1000 ------- 1 1.0 2.0 142 142
- 0.220851 1 2 cbr 1000 ------- 1 1.0 2.0 142 142
r 0.220885 1 2 cbr 1000 ------- 1 1.0 2.0 127 127
+ 0.221702 1 2 cbr 1000 ------- 1 1.0 2.0 143 143
- 0.221702 1 2 cbr 1000 ------- 1 1.0 2.0 143 143
r 0.221736 1 2 cbr 1000 ------- 1 1.0 2.0 128 128
+ 0.222553 1 2 cbr 1000 ------- 1 1.0 2.0 144 144
- 0.222553 1 2 cbr 1000 ------- 1 1.0 2.0 144 144
r 0.222587 1 2 cbr 1000 ------- 1 1.0 2.0 129 129
+ 0.223404 1 2 cbr 1000 ------- 1 1.0 2.0 145 145
- 0.223404 1 2 cbr 1000 ------- 1 1.0 2.0 145 145
r 0.223438 1 2 cbr 1000 ------- 1 1.0 2.0 130 130
+ 0.224255 1 2 cbr 1000 ------- 1 1.0 2.0 146 146
- 0.224255 1 2 cbr 1000 ------- 1 1.0 2.0 146 146
r 0.224289 1 2 cbr 1000 ------- 1 1.0 2.0 131 131
+ 0.225106 1 2 cbr 1000 ------- 1 1.0 2.0 147 147
- 0.225106 1 2 cbr 1000 ------- 1 1.0 2.0 147 147
r 0.22514 1 2 cbr 1000 ------- 1 1.0 2.0 132 132
+ 0.225957 1 2 cbr 1000 ------- 1 1.0 2.0 148 148
- 0.225957 1 2 cbr 1000 ------- 1 1.0 2.0 148 148
r 0.225991 1 2 cbr 1000 ------- 1 1.0 2.0 133 133
+ 0.226809 1 2 cbr 1000 ------- 1 1.0 2.0 149 149
- 0.226809 1 2 cbr 1000 ------- 1 1.0 2.0 149 149
r 0.226843 1 2 cbr 1000 ------- 1 1.0 2.0 134 134
+ 0.22766 1 2 cbr 1000 ------- 1 1.0 2.0 150 150
- 0.22766 1 2 cbr 1000 ------- 1 1.0 2.0 150 150
r 0.227694 1 2 cbr 1000 ------- 1 1.0 2.0 135 135
+ 0.228511 1 2 cbr 1000 ------- 1 1.0 2.0 151 151
- 0.228511 1 2 cbr 1000 ------- 1 1.0 2.0 151 151
r 0.228545 1 2 cbr 1000 ------- 1 1.0 2.0 136 136
+ 0.229362 1 2 cbr 1000 ------- 1 1.0 2.0 152 152
- 0.229362 1 2 cbr 1000 ------- 1 1.0 2.0 152 152
r 0.229396 1 2 cbr 1000 ------- 1 1.0 2.0 137 137
+ 0.230213 1 2 cbr 1000 ------- 1 1.0 2.0 153 153
- 0.230213 1 2 cbr 1000 ------- 1 1.0 2.0 153 153
r 0.230247 1 2 cbr 1000 ------- 1 1.0 2.0 138 138
+ 0.231064 1 2 cbr 1000 ------- 1 1.0 2.0 154 154
- 0.231064 1 2 cbr 1000 ------- 1 1.0 2.0 154 154
r 0.231098 1 2 cbr 1000 ------- 1 1.0 2.0 139 139
+ 0.231915 1 2 cbr 1000 ------- 1 1.0 2.0 155 155
- 0.231915 1 2 cbr 1000 ------- 1 1.0 2.0 155 155
r 0.231949 1 2 cbr 1000 ------- 1 1.0 2.0 140 140
+ 0.232766 1 2 cbr 1000 ------- 1 1.0 2.0 156 156
- 0.232766 1 2 cbr 1000 ------- 1 1.0 2.0 156 156
r 0.2328 1 2 cbr 1000 ------- 1 1.0 2.0 141 141
+ 0.233617 1 2 cbr 1000 ------- 1 1.0 2.0 157 157
- 0.233617 1 2 cbr 1000 ------- 1 1.0 2.0 157 157
r 0.233651 1 2 cbr 1000 ------- 1 1.0 2.0 142 142
+ 0.234468 1 2 cbr 1000 ------- 1 1.0 2.0 158 158
- 0.234468 1 2 cbr 1000 ------- 1 1.0 2.0 158 158
r 0.234502 1 2 cbr 1000 ------- 1 1.0 2.0 143 143
+ 0.235319 1 2 cbr 1000 ------- 1 1.0 2.0 159 159
- 0.235319 1 2 cbr 1000 ------- 1 1.0 2.0 159 159
r 0.235353 1 2 cbr 1000 ------- 1 1.0 2.0 144 144
+ 0.23617 1 2 cbr 1000 ------- 1 1.0 2.0 160 160
- 0.23617 1 2 cbr 1000 ------- 1 1.0 2.0 160 160
r 0.236204 1 2 cbr 1000 ------- 1 1.0 2.0 145 145
+ 0.237021 1 2 cbr 1000 ------- 1 1.0 2.0 161 161
- 0.237021 1 2 cbr 1000 ------- 1 1.0 2.0 161 161
r 0.237055 1 2 cbr 1000 ------- 1 1.0 2.0 146 146
+ 0.237872 1 2 cbr 1000 ------- 1 1.0 2.0 162 162
- 0.237872 1 2 cbr 1000 ------- 1 1.0 2.0 162 162
r 0.237906 1 2 cbr 1000 ------- 1 1.0 2.0 147 147
+ 0.238723 1 2 cbr 1000 ------- 1 1.0 2.0 163 163
- 0.238723 1 2 cbr 1000 ------- 1 1.0 2.0 163 163
r 0.238757 1 2 cbr 1000 ------- 1 1.0 2.0 148 148
+ 0.239574 1 2 cbr 1000 ------- 1 1.0 2.0 164 164
- 0.239574 1 2 cbr 1000 ------- 1 1.0 2.0 164 164
r 0.239609 1 2 cbr 1000 ------- 1 1.0 2.0 149 149
+ 0.240426 1 2 cbr 1000 ------- 1 1.0 2.0 165 165
- 0.240426 1 2 cbr 1000 ------- 1 1.0 2.0 165 165
r 0.24046 1 2 cbr 1000 ------- 1 1.0 2.0 150 150
+ 0.241277 1 2 cbr 1000 ------- 1 1.0 2.0 166 166
- 0.241277 1 2 cbr 1000 ------- 1 1.0 2.0 166 166
r 0.241311 1 2 cbr 1000 ------- 1 1.0 2.0 151 151
+ 0.242128 1 2 cbr 1000 ------- 1 1.0 2.0 167 167
- 0.242128 1 2 cbr 1000 ------- 1 1.0 2.0 167 167
r 0.242162 1 2 cbr 1000 ------- 1 1.0 2.0 152 152
+ 0.242979 1 2 cbr 1000 ------- 1 1.0 2.0 168 168
- 0.242979 1 2 cbr 1000 ------- 1 1.0 2.0 168 168
r 0.243013 1 2 cbr 1000 ------- 1 1.0 2.0 153 153
+ 0.24383 1 2 cbr 1000 ------- 1 1.0 2.0 169 169
- 0.24383 1 2 cbr 1000 ------- 1 1.0 2.0 169 169
r 0.243864 1 2 cbr 1000 ------- 1 1.0 2.0 154 154
+ 0.244681 1 2 cbr 1000 ------- 1 1.0 2.0 170 170
- 0.244681 1 2 cbr 1000 ------- 1 1.0 2.0 170 170
r 0.244715 1 2 cbr 1000 ------- 1 1.0 2.0 155 155
+ 0.245532 1 2 cbr 1000 ------- 1 1.0 2.0 171 171
- 0.245532 1 2 cbr 1000 ------- 1 1.0 2.0 171 171
r 0.245566 1 2 cbr 1000 ------- 1 1.0 2.0 156 156
+ 0.246383 1 2 cbr 1000 ------- 1 1.0 2.0 172 172
- 0.246383 1 2 cbr 1000 ------- 1 1.0 2.0 172 172
r 0.246417 1 2 cbr 1000 ------- 1 1.0 2.0 157 157
+ 0.247234 1 2 cbr 1000 ------- 1 1.0 2.0 173 173
- 0.247234 1 2 cbr 1000 ------- 1 1.0 2.0 173 173
r 0.247268 1 2 cbr 1000 ------- 1 1.0 2.0 158 158
+ 0.248085 1 2 cbr 1000 ------- 1 1.0 2.0 174 174
- 0.248085 1 2 cbr 1000 ------- 1 1.0 2.0 174 174
r 0.248119 1 2 cbr 1000 ------- 1 1.0 2.0 159 159
+ 0.248936 1 2 cbr 1000 ------- 1 1.0 2.0 175 175
- 0.248936 1 2 cbr 1000 ------- 1 1.0 2.0 175 175
r 0.24897 1 2 cbr 1000 ------- 1 1.0 2.0 160 160
+ 0.249787 1 2 cbr 1000 ------- 1 1.0 2.0 176 176
- 0.249787 1 2 cbr 1000 ------- 1 1.0 2.0 176 176
r 0.249821 1 2 cbr 1000 ------- 1 1.0 2.0 161 161
+ 0.250638 1 2 cbr 1000 ------- 1 1.0 2.0 177 177
- 0.250638 1 2 cbr 1000 ------- 1 1.0 2.0 177 177
r 0.250672 1 2 cbr 1000 ------- 1 1.0 2.0 162 162
+ 0.251489 1 2 cbr 1000 ------- 1 1.0 2.0 178 178
- 0.251489 1 2 cbr 1000 ------- 1 1.0 2.0 178 178
r 0.251523 1 2 cbr 1000 ------- 1 1.0 2.0 163 163
+ 0.25234 1 2 cbr 1000 ------- 1 1.0 2.0 179 179
- 0.25234 1 2 cbr 1000 ------- 1 1.0 2.0 179 179
r 0.252374 1 2 cbr 1000 ------- 1 1.0 2.0 164 164
+ 0.253191 1 2 cbr 1000 ------- 1 1.0 2.0 180 180
- 0.253191 1 2 cbr 1000 ------- 1 1.0 2.0 180 180
r 0.253226 1 2 cbr 1000 ------- 1 1.0 2.0 165 165
+ 0.254043 1 2 cbr 1000 ------- 1 1.0 2.0 181 181
- 0.254043 1 2 cbr 1000 ------- 1 1.0 2.0 181 181
r 0.254077 1 2 cbr 1000 ------- 1 1.0 2.0 166 166
+ 0.254894 1 2 cbr 1000 ------- 1 1.0 2.0 182 182
- 0.254894 1 2 cbr 1000 ------- 1 1.0 2.0 182 182
r 0.254928 1 2 cbr 1000 ------- 1 1.0 2.0 167 167
+ 0.255745 1 2 cbr 1000 ------- 1 1.0 2.0 183 183
- 0.255745 1 2 cbr 1000 ------- 1 1.0 2.0 183 183
r 0.255779 1 2 cbr 1000 ------- 1 1.0 2.0 168 168
+ 0.256596 1 2 cbr 1000 ------- 1 1.0 2.0 184 184
- 0.256596 1 2 cbr 1000 ------- 1 1.0 2.0 184 184
r 0.25663 1 2 cbr 1000 ------- 1 1.0 2.0 169 169
+ 0.257447 1 2 cbr 1000 ------- 1 1.0 2.0 185 185
- 0.257447 1 2 cbr 1000 ------- 1 1.0 2.0 185 185
r 0.257481 1 2 cbr 1000 ------- 1 1.0 2.0 170 170
+ 0.258298 1 2 cbr 1000 ------- 1 1.0 2.0 186 186
- 0.258298 1 2 cbr 1000 ------- 1 1.0 2.0 186 186
r 0.258332 1 2 cbr 1000 ------- 1 1.0 2.0 171 171
+ 0.259149 1 2 cbr 1000 ------- 1 1.0 2.0 187 187
- 0.259149 1 2 cbr 1000 ------- 1 1.0 2.0 187 187
r 0.259183 1 2 cbr 1000 ------- 1 1.0 2.0 172 172
+ 0.26 1 2 cbr 1000 ------- 1 1.0 2.0 188 188
- 0.26 1 2 cbr 1000 ------- 1 1.0 2.0 188 188
r 0.260034 1 2 cbr 1000 ------- 1 1.0 2.0 173 173
+ 0.260851 1 2 cbr 1000 ------- 1 1.0 2.0 189 189
- 0.260851 1 2 cbr 1000 ------- 1 1.0 2.0 189 189
r 0.260885 1 2 cbr 1000 ------- 1 1.0 2.0 174 174
+ 0.261702 1 2 cbr 1000 ------- 1 1.0 2.0 190 190
- 0.261702 1 2 cbr 1000 ------- 1 1.0 2.0 190 190
r 0.261736 1 2 cbr 1000 ------- 1 1.0 2.0 175 175
+ 0.262553 1 2 cbr 1000 ------- 1 1.0 2.0 191 191
- 0.262553 1 2 cbr 1000 ------- 1 1.0 2.0 191 191
r 0.262587 1 2 cbr 1000 ------- 1 1.0 2.0 176 176
+ 0.263404 1 2 cbr 1000 ------- 1 1.0 2.0 192 192
- 0.263404 1 2 cbr 1000 ------- 1 1.0 2.0 192 192
r 0.263438 1 2 cbr 1000 ------- 1 1.0 2.0 177 177
+ 0.264255 1 2 cbr 1000 ------- 1 1.0 2.0 193 193
- 0.264255 1 2 cbr 1000 ------- 1 1.0 2.0 193 193
r 0.264289 1 2 cbr 1000 ------- 1 1.0 2.0 178 178
+ 0.265106 1 2 cbr 1000 ------- 1 1.0 2.0 194 194
- 0.265106 1 2 cbr 1000 ------- 1 1.0 2.0 194 194
r 0.26514 1 2 cbr 1000 ------- 1 1.0 2.0 179 179
+ 0.265957 1 2 cbr 1000 ------- 1 1.0 2.0 195 195
- 0.265957 1 2 cbr 1000 ------- 1 1.0 2.0 195 195
r 0.265991 1 2 cbr 1000 ------- 1 1.0 2.0 180 180
+ 0.266809 1 2 cbr 1000 ------- 1 1.0 2.0 196 196
- 0.266809 1 2 cbr 1000 ------- 1 1.0 2.0 196 196
r 0.266843 1 2 cbr 1000 ------- 1 1.0 2.0 181 181
+ 0.26766 1 2 cbr 1000 ------- 1 1.0 2.0 197 197
- 0.26766 1 2 cbr 1000 ------- 1 1.0 2.0 197 197
r 0.267694 1 2 cbr 1000 ------- 1 1.0 2.0 182 182
+ 0.268511 1 2 cbr 1000 ------- 1 1.0 2.0 198 198
- 0.268511 1 2 cbr 1000 ------- 1 1.0 2.0 198 198
r 0.268545 1 2 cbr 1000 ------- 1 1.0 2.0 183 183
+ 0.269362 1 2 cbr 1000 ------- 1 1.0 2.0 199 199
- 0.269362 1 2 cbr 1000 ------- 1 1.0 2.0 199 199
r 0.269396 1 2 cbr 1000 ------- 1 1.0 2.0 184 184
+ 0.270213 1 2 cbr 1000 ------- 1 1.0 2.0 200 200
- 0.270213 1 2 cbr 1000 ------- 1 1.0 2.0 200 200
r 0.270247 1 2 cbr 1000 ------- 1 1.0 2.0 185 185
+ 0.271064 1 2 cbr 1000 ------- 1 1.0 2.0 201 201
- 0.271064 1 2 cbr 1000 ------- 1 1.0 2.0 201 201
r 0.271098 1 2 cbr 1000 ------- 1 1.0 2.0 186 186
+ 0.271915 1 2 cbr 1000 ------- 1 1.0 2.0 202 202
- 0.271915 1 2 cbr 1000 ------- 1 1.0 2.0 202 202
r 0.271949 1 2 cbr 1000 ------- 1 1.0 2.0 187 187
+ 0.272766 1 2 cbr 1000 ------- 1 1.0 2.0 203 203
- 0.272766 1 2 cbr 1000 ------- 1 1.0 2.0 203 203
r 0.2728 1 2 cbr 1000 ------- 1 1.0 2.0 188 188
+ 0.273617 1 2 cbr 1000 ------- 1 1.0 2.0 204 204
- 0.273617 1 2 cbr 1000 ------- 1 1.0 2.0 204 204
r 0.273651 1 2 cbr 1000 ------- 1 1.0 2.0 189 189
+ 0.274468 1 2 cbr 1000 ------- 1 1.0 2.0 205 205
- 0.274468 1 2 cbr 1000 ------- 1 1.0 2.0 205 205
r 0.274502 1 2 cbr 1000 ------- 1 1.0 2.0 190 190
+ 0.275319 1 2 cbr 1000 ------- 1 1.0 2.0 206 206
- 0.275319 1 2 cbr 1000 ------- 1 1.0 2.0 206 206
r 0.275353 1 2 cbr 1000 ------- 1 1.0 2.0 191 191
+ 0.27617 1 2 cbr 1000 ------- 1 1.0 2.0 207 207
- 0.27617 1 2 cbr 1000 ------- 1 1.0 2.0 207 207
r 0.276204 1 2 cbr 1000 ------- 1 1.0 2.0 192 192
+ 0.277021 1 2 cbr 1000 ------- 1 1.0 2.0 208 208
- 0.277021 1 2 cbr 1000 ------- 1 1.0 2.0 208 208
r 0.277055 1 2 cbr 1000 ------- 1 1.0 2.0 193 193
+ 0.277872 1 2 cbr 1000 ------- 1 1.0 2.0 209 209
- 0.277872 1 2 cbr 1000 ------- 1 1.0 2.0 209 209
r 0.277906 1 2 cbr 1000 ------- 1 1.0 2.0 194 194