+ 0.1 1 2 cbr 1000 ------- 1 1.0 2.0 0 0
- 0.1 1 2 cbr 1000 ------- 1 1.0 2.0 0 0
+ 0.101067 1 2 cbr 1000 ------- 1 1.0 2.0 1 1
- 0.101067 1 2 cbr 1000 ------- 1 1.0 2.0 1 1
+ 0.102133 1 2 cbr 1000 ------- 1 1.0 2.0 2 2
- 0.102133 1 2 cbr 1000 ------- 1 1.0 2.0 2 2
+ 0.1032 1 2 cbr 1000 ------- 1 1.0 2.0 3 3
- 0.1032 1 2 cbr 1000 ------- 1 1.0 2.0 3 3
+ 0.104267 1 2 cbr 1000 ------- 1 1.0 2.0 4 4
- 0.104267 1 2 cbr 1000 ------- 1 1.0 2.0 4 4
+ 0.105333 1 2 cbr 1000 ------- 1 1.0 2.0 5 5
- 0.105333 1 2 cbr 1000 ------- 1 1.0 2.0 5 5
+ 0.1064 1 2 cbr 1000 ------- 1 1.0 2.0 6 6
- 0.1064 1 2 cbr 1000 ------- 1 1.0 2.0 6 6
+ 0.107467 1 2 cbr 1000 ------- 1 1.0 2.0 7 7
- 0.107467 1 2 cbr 1000 ------- 1 1.0 2.0 7 7
+ 0.108533 1 2 cbr 1000 ------- 1 1.0 2.0 8 8
- 0.108533 1 2 cbr 1000 ------- 1 1.0 2.0 8 8
+ 0.1096 1 2 cbr 1000 ------- 1 1.0 2.0 9 9
- 0.1096 1 2 cbr 1000 ------- 1 1.0 2.0 9 9
+ 0.110667 1 2 cbr 1000 ------- 1 1.0 2.0 10 10
- 0.110667 1 2 cbr 1000 ------- 1 1.0 2.0 10 10
+ 0.111733 1 2 cbr 1000 ------- 1 1.0 2.0 11 11
- 0.111733 1 2 cbr 1000 ------- 1 1.0 2.0 11 11
+ 0.1128 1 2 cbr 1000 ------- 1 1.0 2.0 12 12
- 0.1128 1 2 cbr 1000 ------- 1 1.0 2.0 12 12
r 0.1128 1 2 cbr 1000 ------- 1 1.0 2.0 0 0
+ 0.113867 1 2 cbr 1000 ------- 1 1.0 2.0 13 13
- 0.113867 1 2 cbr 1000 ------- 1 1.0 2.0 13 13
r 0.113867 1 2 cbr 1000 ------- 1 1.0 2.0 1 1
+ 0.114933 1 2 cbr 1000 ------- 1 1.0 2.0 14 14
- 0.114933 1 2 cbr 1000 ------- 1 1.0 2.0 14 14
r 0.114933 1 2 cbr 1000 ------- 1 1.0 2.0 2 2
+ 0.116 1 2 cbr 1000 ------- 1 1.0 2.0 15 15
- 0.116 1 2 cbr 1000 ------- 1 1.0 2.0 15 15
r 0.116 1 2 cbr 1000 ------- 1 1.0 2.0 3 3
+ 0.117067 1 2 cbr 1000 ------- 1 1.0 2.0 16 16
- 0.117067 1 2 cbr 1000 ------- 1 1.0 2.0 16 16
r 0.117067 1 2 cbr 1000 ------- 1 1.0 2.0 4 4
+ 0.118133 1 2 cbr 1000 ------- 1 1.0 2.0 17 17
- 0.118133 1 2 cbr 1000 ------- 1 1.0 2.0 17 17
r 0.118133 1 2 cbr 1000 ------- 1 1.0 2.0 5 5
+ 0.1192 1 2 cbr 1000 ------- 1 1.0 2.0 18 18
- 0.1192 1 2 cbr 1000 ------- 1 1.0 2.0 18 18
r 0.1192 1 2 cbr 1000 ------- 1 1.0 2.0 6 6
+ 0.120267 1 2 cbr 1000 ------- 1 1.0 2.0 19 19
- 0.120267 1 2 cbr 1000 ------- 1 1.0 2.0 19 19
r 0.120267 1 2 cbr 1000 ------- 1 1.0 2.0 7 7
+ 0.121333 1 2 cbr 1000 ------- 1 1.0 2.0 20 20
- 0.121333 1 2 cbr 1000 ------- 1 1.0 2.0 20 20
r 0.121333 1 2 cbr 1000 ------- 1 1.0 2.0 8 8
+ 0.1224 1 2 cbr 1000 ------- 1 1.0 2.0 21 21
- 0.1224 1 2 cbr 1000 ------- 1 1.0 2.0 21 21
r 0.1224 1 2 cbr 1000 ------- 1 1.0 2.0 9 9
+ 0.123467 1 2 cbr 1000 ------- 1 1.0 2.0 22 22
- 0.123467 1 2 cbr 1000 ------- 1 1.0 2.0 22 22
r 0.123467 1 2 cbr 1000 ------- 1 1.0 2.0 10 10
+ 0.124533 1 2 cbr 1000 ------- 1 1.0 2.0 23 23
- 0.124533 1 2 cbr 1000 ------- 1 1.0 2.0 23 23
r 0.124533 1 2 cbr 1000 ------- 1 1.0 2.0 11 11
+ 0.1256 1 2 cbr 1000 ------- 1 1.0 2.0 24 24
- 0.1256 1 2 cbr 1000 ------- 1 1.0 2.0 24 24
r 0.1256 1 2 cbr 1000 ------- 1 1.0 2.0 12 12
+ 0.126667 1 2 cbr 1000 ------- 1 1.0 2.0 25 25
- 0.126667 1 2 cbr 1000 ------- 1 1.0 2.0 25 25
r 0.126667 1 2 cbr 1000 ------- 1 1.0 2.0 13 13
+ 0.127733 1 2 cbr 1000 ------- 1 1.0 2.0 26 26
- 0.127733 1 2 cbr 1000 ------- 1 1.0 2.0 26 26
r 0.127733 1 2 cbr 1000 ------- 1 1.0 2.0 14 14
+ 0.1288 1 2 cbr 1000 ------- 1 1.0 2.0 27 27
- 0.1288 1 2 cbr 1000 ------- 1 1.0 2.0 27 27
r 0.1288 1 2 cbr 1000 ------- 1 1.0 2.0 15 15
+ 0.129867 1 2 cbr 1000 ------- 1 1.0 2.0 28 28
- 0.129867 1 2 cbr 1000 ------- 1 1.0 2.0 28 28
r 0.129867 1 2 cbr 1000 ------- 1 1.0 2.0 16 16
+ 0.130933 1 2 cbr 1000 ------- 1 1.0 2.0 29 29
- 0.130933 1 2 cbr 1000 ------- 1 1.0 2.0 29 29
r 0.130933 1 2 cbr 1000 ------- 1 1.0 2.0 17 17
+ 0.132 1 2 cbr 1000 ------- 1 1.0 2.0 30 30
- 0.132 1 2 cbr 1000 ------- 1 1.0 2.0 30 30
r 0.132 1 2 cbr 1000 ------- 1 1.0 2.0 18 18
+ 0.133067 1 2 cbr 1000 ------- 1 1.0 2.0 31 31
- 0.133067 1 2 cbr 1000 ------- 1 1.0 2.0 31 31
r 0.133067 1 2 cbr 1000 ------- 1 1.0 2.0 19 19
+ 0.134133 1 2 cbr 1000 ------- 1 1.0 2.0 32 32
- 0.134133 1 2 cbr 1000 ------- 1 1.0 2.0 32 32
r 0.134133 1 2 cbr 1000 ------- 1 1.0 2.0 20 20
+ 0.1352 1 2 cbr 1000 ------- 1 1.0 2.0 33 33
- 0.1352 1 2 cbr 1000 ------- 1 1.0 2.0 33 33
r 0.1352 1 2 cbr 1000 ------- 1 1.0 2.0 21 21
+ 0.136267 1 2 cbr 1000 ------- 1 1.0 2.0 34 34
- 0.136267 1 2 cbr 1000 ------- 1 1.0 2.0 34 34
r 0.136267 1 2 cbr 1000 ------- 1 1.0 2.0 22 22
+ 0.137333 1 2 cbr 1000 ------- 1 1.0 2.0 35 35
- 0.137333 1 2 cbr 1000 ------- 1 1.0 2.0 35 35
r 0.137333 1 2 cbr 1000 ------- 1 1.0 2.0 23 23
+ 0.1384 1 2 cbr 1000 ------- 1 1.0 2.0 36 36
- 0.1384 1 2 cbr 1000 ------- 1 1.0 2.0 36 36
r 0.1384 1 2 cbr 1000 ------- 1 1.0 2.0 24 24
+ 0.139467 1 2 cbr 1000 ------- 1 1.0 2.0 37 37
- 0.139467 1 2 cbr 1000 ------- 1 1.0 2.0 37 37
r 0.139467 1 2 cbr 1000 ------- 1 1.0 2.0 25 25
+ 0.140533 1 2 cbr 1000 ------- 1 1.0 2.0 38 38
- 0.140533 1 2 cbr 1000 ------- 1 1.0 2.0 38 38
r 0.140533 1 2 cbr 1000 ------- 1 1.0 2.0 26 26
+ 0.1416 1 2 cbr 1000 ------- 1 1.0 2.0 39 39
- 0.1416 1 2 cbr 1000 ------- 1 1.0 2.0 39 39
r 0.1416 1 2 cbr 1000 ------- 1 1.0 2.0 27 27
+ 0.142667 1 2 cbr 1000 ------- 1 1.0 2.0 40 40
- 0.142667 1 2 cbr 1000 ------- 1 1.0 2.0 40 40
r 0.142667 1 2 cbr 1000 ------- 1 1.0 2.0 28 28
+ 0.143733 1 2 cbr 1000 ------- 1 1.0 2.0 41 41
- 0.143733 1 2 cbr 1000 ------- 1 1.0 2.0 41 41
r 0.143733 1 2 cbr 1000 ------- 1 1.0 2.0 29 29
+ 0.1448 1 2 cbr 1000 ------- 1 1.0 2.0 42 42
- 0.1448 1 2 cbr 1000 ------- 1 1.0 2.0 42 42
r 0.1448 1 2 cbr 1000 ------- 1 1.0 2.0 30 30
+ 0.145867 1 2 cbr 1000 ------- 1 1.0 2.0 43 43
- 0.145867 1 2 cbr 1000 ------- 1 1.0 2.0 43 43
r 0.145867 1 2 cbr 1000 ------- 1 1.0 2.0 31 31
+ 0.146933 1 2 cbr 1000 ------- 1 1.0 2.0 44 44
- 0.146933 1 2 cbr 1000 ------- 1 1.0 2.0 44 44
r 0.146933 1 2 cbr 1000 ------- 1 1.0 2.0 32 32
+ 0.148 1 2 cbr 1000 ------- 1 1.0 2.0 45 45
- 0.148 1 2 cbr 1000 ------- 1 1.0 2.0 45 45
r 0.148 1 2 cbr 1000 ------- 1 1.0 2.0 33 33
+ 0.149067 1 2 cbr 1000 ------- 1 1.0 2.0 46 46
- 0.149067 1 2 cbr 1000 ------- 1 1.0 2.0 46 46
r 0.149067 1 2 cbr 1000 ------- 1 1.0 2.0 34 34
+ 0.150133 1 2 cbr 1000 ------- 1 1.0 2.0 47 47
- 0.150133 1 2 cbr 1000 ------- 1 1.0 2.0 47 47
r 0.150133 1 2 cbr 1000 ------- 1 1.0 2.0 35 35
+ 0.1512 1 2 cbr 1000 ------- 1 1.0 2.0 48 48
- 0.1512 1 2 cbr 1000 ------- 1 1.0 2.0 48 48
r 0.1512 1 2 cbr 1000 ------- 1 1.0 2.0 36 36
+ 0.152267 1 2 cbr 1000 ------- 1 1.0 2.0 49 49
- 0.152267 1 2 cbr 1000 ------- 1 1.0 2.0 49 49
r 0.152267 1 2 cbr 1000 ------- 1 1.0 2.0 37 37
+ 0.153333 1 2 cbr 1000 ------- 1 1.0 2.0 50 50
- 0.153333 1 2 cbr 1000 ------- 1 1.0 2.0 50 50
r 0.153333 1 2 cbr 1000 ------- 1 1.0 2.0 38 38
+ 0.1544 1 2 cbr 1000 ------- 1 1.0 2.0 51 51
- 0.1544 1 2 cbr 1000 ------- 1 1.0 2.0 51 51
r 0.1544 1 2 cbr 1000 ------- 1 1.0 2.0 39 39
+ 0.155467 1 2 cbr 1000 ------- 1 1.0 2.0 52 52
- 0.155467 1 2 cbr 1000 ------- 1 1.0 2.0 52 52
r 0.155467 1 2 cbr 1000 ------- 1 1.0 2.0 40 40
+ 0.156533 1 2 cbr 1000 ------- 1 1.0 2.0 53 53
- 0.156533 1 2 cbr 1000 ------- 1 1.0 2.0 53 53
r 0.156533 1 2 cbr 1000 ------- 1 1.0 2.0 41 41
+ 0.1576 1 2 cbr 1000 ------- 1 1.0 2.0 54 54
- 0.1576 1 2 cbr 1000 ------- 1 1.0 2.0 54 54
r 0.1576 1 2 cbr 1000 ------- 1 1.0 2.0 42 42
+ 0.158667 1 2 cbr 1000 ------- 1 1.0 2.0 55 55
- 0.158667 1 2 cbr 1000 ------- 1 1.0 2.0 55 55
r 0.158667 1 2 cbr 1000 ------- 1 1.0 2.0 43 43
+ 0.159733 1 2 cbr 1000 ------- 1 1.0 2.0 56 56
- 0.159733 1 2 cbr 1000 ------- 1 1.0 2.0 56 56
r 0.159733 1 2 cbr 1000 ------- 1 1.0 2.0 44 44
+ 0.1608 1 2 cbr 1000 ------- 1 1.0 2.0 57 57
- 0.1608 1 2 cbr 1000 ------- 1 1.0 2.0 57 57
r 0.1608 1 2 cbr 1000 ------- 1 1.0 2.0 45 45
+ 0.161867 1 2 cbr 1000 ------- 1 1.0 2.0 58 58
- 0.161867 1 2 cbr 1000 ------- 1 1.0 2.0 58 58
r 0.161867 1 2 cbr 1000 ------- 1 1.0 2.0 46 46
+ 0.162933 1 2 cbr 1000 ------- 1 1.0 2.0 59 59
- 0.162933 1 2 cbr 1000 ------- 1 1.0 2.0 59 59
r 0.162933 1 2 cbr 1000 ------- 1 1.0 2.0 47 47
+ 0.164 1 2 cbr 1000 ------- 1 1.0 2.0 60 60
- 0.164 1 2 cbr 1000 ------- 1 1.0 2.0 60 60
r 0.164 1 2 cbr 1000 ------- 1 1.0 2.0 48 48
+ 0.165067 1 2 cbr 1000 ------- 1 1.0 2.0 61 61
- 0.165067 1 2 cbr 1000 ------- 1 1.0 2.0 61 61
r 0.165067 1 2 cbr 1000 ------- 1 1.0 2.0 49 49
+ 0.166133 1 2 cbr 1000 ------- 1 1.0 2.0 62 62
- 0.166133 1 2 cbr 1000 ------- 1 1.0 2.0 62 62
r 0.166133 1 2 cbr 1000 ------- 1 1.0 2.0 50 50
+ 0.1672 1 2 cbr 1000 ------- 1 1.0 2.0 63 63
- 0.1672 1 2 cbr 1000 ------- 1 1.0 2.0 63 63
r 0.1672 1 2 cbr 1000 ------- 1 1.0 2.0 51 51
+ 0.168267 1 2 cbr 1000 ------- 1 1.0 2.0 64 64
- 0.168267 1 2 cbr 1000 ------- 1 1.0 2.0 64 64
r 0.168267 1 2 cbr 1000 ------- 1 1.0 2.0 52 52
+ 0.169333 1 2 cbr 1000 ------- 1 1.0 2.0 65 65
- 0.169333 1 2 cbr 1000 ------- 1 1.0 2.0 65 65
r 0.169333 1 2 cbr 1000 ------- 1 1.0 2.0 53 53
+ 0.1704 1 2 cbr 1000 ------- 1 1.0 2.0 66 66
- 0.1704 1 2 cbr 1000 ------- 1 1.0 2.0 66 66
r 0.1704 1 2 cbr 1000 ------- 1 1.0 2.0 54 54
+ 0.171467 1 2 cbr 1000 ------- 1 1.0 2.0 67 67
- 0.171467 1 2 cbr 1000 ------- 1 1.0 2.0 67 67
r 0.171467 1 2 cbr 1000 ------- 1 1.0 2.0 55 55
+ 0.172533 1 2 cbr 1000 ------- 1 1.0 2.0 68 68
- 0.172533 1 2 cbr 1000 ------- 1 1.0 2.0 68 68
r 0.172533 1 2 cbr 1000 ------- 1 1.0 2.0 56 56
+ 0.1736 1 2 cbr 1000 ------- 1 1.0 2.0 69 69
- 0.1736 1 2 cbr 1000 ------- 1 1.0 2.0 69 69
r 0.1736 1 2 cbr 1000 ------- 1 1.0 2.0 57 57
+ 0.174667 1 2 cbr 1000 ------- 1 1.0 2.0 70 70
- 0.174667 1 2 cbr 1000 ------- 1 1.0 2.0 70 70
r 0.174667 1 2 cbr 1000 ------- 1 1.0 2.0 58 58
+ 0.175733 1 2 cbr 1000 ------- 1 1.0 2.0 71 71
- 0.175733 1 2 cbr 1000 ------- 1 1.0 2.0 71 71
r 0.175733 1 2 cbr 1000 ------- 1 1.0 2.0 59 59
+ 0.1768 1 2 cbr 1000 ------- 1 1.0 2.0 72 72
- 0.1768 1 2 cbr 1000 ------- 1 1.0 2.0 72 72
r 0.1768 1 2 cbr 1000 ------- 1 1.0 2.0 60 60
+ 0.177867 1 2 cbr 1000 ------- 1 1.0 2.0 73 73
- 0.177867 1 2 cbr 1000 ------- 1 1.0 2.0 73 73
r 0.177867 1 2 cbr 1000 ------- 1 1.0 2.0 61 61
+ 0.178933 1 2 cbr 1000 ------- 1 1.0 2.0 74 74
- 0.178933 1 2 cbr 1000 ------- 1 1.0 2.0 74 74
r 0.178933 1 2 cbr 1000 ------- 1 1.0 2.0 62 62
+ 0.18 1 2 cbr 1000 ------- 1 1.0 2.0 75 75
- 0.18 1 2 cbr 1000 ------- 1 1.0 2.0 75 75
r 0.18 1 2 cbr 1000 ------- 1 1.0 2.0 63 63
+ 0.181067 1 2 cbr 1000 ------- 1 1.0 2.0 76 76
- 0.181067 1 2 cbr 1000 ------- 1 1.0 2.0 76 76
r 0.181067 1 2 cbr 1000 ------- 1 1.0 2.0 64 64
+ 0.182133 1 2 cbr 1000 ------- 1 1.0 2.0 77 77
- 0.182133 1 2 cbr 1000 ------- 1 1.0 2.0 77 77
r 0.182133 1 2 cbr 1000 ------- 1 1.0 2.0 65 65
+ 0.1832 1 2 cbr 1000 ------- 1 1.0 2.0 78 78
- 0.1832 1 2 cbr 1000 ------- 1 1.0 2.0 78 78
r 0.1832 1 2 cbr 1000 ------- 1 1.0 2.0 66 66
+ 0.184267 1 2 cbr 1000 ------- 1 1.0 2.0 79 79
- 0.184267 1 2 cbr 1000 ------- 1 1.0 2.0 79 79
r 0.184267 1 2 cbr 1000 ------- 1 1.0 2.0 67 67
+ 0.185333 1 2 cbr 1000 ------- 1 1.0 2.0 80 80
- 0.185333 1 2 cbr 1000 ------- 1 1.0 2.0 80 80
r 0.185333 1 2 cbr 1000 ------- 1 1.0 2.0 68 68
+ 0.1864 1 2 cbr 1000 ------- 1 1.0 2.0 81 81
- 0.1864 1 2 cbr 1000 ------- 1 1.0 2.0 81 81
r 0.1864 1 2 cbr 1000 ------- 1 1.0 2.0 69 69
+ 0.187467 1 2 cbr 1000 ------- 1 1.0 2.0 82 82
- 0.187467 1 2 cbr 1000 ------- 1 1.0 2.0 82 82
r 0.187467 1 2 cbr 1000 ------- 1 1.0 2.0 70 70
+ 0.188533 1 2 cbr 1000 ------- 1 1.0 2.0 83 83
- 0.188533 1 2 cbr 1000 ------- 1 1.0 2.0 83 83
r 0.188533 1 2 cbr 1000 ------- 1 1.0 2.0 71 71
+ 0.1896 1 2 cbr 1000 ------- 1 1.0 2.0 84 84
- 0.1896 1 2 cbr 1000 ------- 1 1.0 2.0 84 84
r 0.1896 1 2 cbr 1000 ------- 1 1.0 2.0 72 72
+ 0.190667 1 2 cbr 1000 ------- 1 1.0 2.0 85 85
- 0.190667 1 2 cbr 1000 ------- 1 1.0 2.0 85 85
r 0.190667 1 2 cbr 1000 ------- 1 1.0 2.0 73 73
+ 0.191733 1 2 cbr 1000 ------- 1 1.0 2.0 86 86
- 0.191733 1 2 cbr 1000 ------- 1 1.0 2.0 86 86
r 0.191733 1 2 cbr 1000 ------- 1 1.0 2.0 74 74
+ 0.1928 1 2 cbr 1000 ------- 1 1.0 2.0 87 87
- 0.1928 1 2 cbr 1000 ------- 1 1.0 2.0 87 87
r 0.1928 1 2 cbr 1000 ------- 1 1.0 2.0 75 75
+ 0.193867 1 2 cbr 1000 ------- 1 1.0 2.0 88 88
- 0.193867 1 2 cbr 1000 ------- 1 1.0 2.0 88 88
r 0.193867 1 2 cbr 1000 ------- 1 1.0 2.0 76 76
+ 0.194933 1 2 cbr 1000 ------- 1 1.0 2.0 89 89
- 0.194933 1 2 cbr 1000 ------- 1 1.0 2.0 89 89
r 0.194933 1 2 cbr 1000 ------- 1 1.0 2.0 77 77
+ 0.196 1 2 cbr 1000 ------- 1 1.0 2.0 90 90
- 0.196 1 2 cbr 1000 ------- 1 1.0 2.0 90 90
r 0.196 1 2 cbr 1000 ------- 1 1.0 2.0 78 78
+ 0.197067 1 2 cbr 1000 ------- 1 1.0 2.0 91 91
- 0.197067 1 2 cbr 1000 ------- 1 1.0 2.0 91 91
r 0.197067 1 2 cbr 1000 ------- 1 1.0 2.0 79 79
+ 0.198133 1 2 cbr 1000 ------- 1 1.0 2.0 92 92
- 0.198133 1 2 cbr 1000 ------- 1 1.0 2.0 92 92
r 0.198133 1 2 cbr 1000 ------- 1 1.0 2.0 80 80
+ 0.1992 1 2 cbr 1000 ------- 1 1.0 2.0 93 93
- 0.1992 1 2 cbr 1000 ------- 1 1.0 2.0 93 93
r 0.1992 1 2 cbr 1000 ------- 1 1.0 2.0 81 81
+ 0.200267 1 2 cbr 1000 ------- 1 1.0 2.0 94 94
- 0.200267 1 2 cbr 1000 ------- 1 1.0 2.0 94 94
r 0.200267 1 2 cbr 1000 ------- 1 1.0 2.0 82 82
+ 0.201333 1 2 cbr 1000 ------- 1 1.0 2.0 95 95
- 0.201333 1 2 cbr 1000 ------- 1 1.0 2.0 95 95
r 0.201333 1 2 cbr 1000 ------- 1 1.0 2.0 83 83
+ 0.2024 1 2 cbr 1000 ------- 1 1.0 2.0 96 96
- 0.2024 1 2 cbr 1000 ------- 1 1.0 2.0 96 96
r 0.2024 1 2 cbr 1000 ------- 1 1.0 2.0 84 84
+ 0.203467 1 2 cbr 1000 ------- 1 1.0 2.0 97 97
- 0.203467 1 2 cbr 1000 ------- 1 1.0 2.0 97 97
r 0.203467 1 2 cbr 1000 ------- 1 1.0 2.0 85 85
+ 0.204533 1 2 cbr 1000 ------- 1 1.0 2.0 98 98
- 0.204533 1 2 cbr 1000 ------- 1 1.0 2.0 98 98
r 0.204533 1 2 cbr 1000 ------- 1 1.0 2.0 86 86
+ 0.2056 1 2 cbr 1000 ------- 1 1.0 2.0 99 99
- 0.2056 1 2 cbr 1000 ------- 1 1.0 2.0 99 99
r 0.2056 1 2 cbr 1000 ------- 1 1.0 2.0 87 87
+ 0.206667 1 2 cbr 1000 ------- 1 1.0 2.0 100 100
- 0.206667 1 2 cbr 1000 ------- 1 1.0 2.0 100 100
r 0.206667 1 2 cbr 1000 ------- 1 1.0 2.0 88 88
+ 0.207733 1 2 cbr 1000 ------- 1 1.0 2.0 101 101
- 0.207733 1 2 cbr 1000 ------- 1 1.0 2.0 101 101
r 0.207733 1 2 cbr 1000 ------- 1 1.0 2.0 89 89
+ 0.2088 1 2 cbr 1000 ------- 1 1.0 2.0 102 102
- 0.2088 1 2 cbr 1000 ------- 1 1.0 2.0 102 102
r 0.2088 1 2 cbr 1000 ------- 1 1.0 2.0 90 90
+ 0.209867 1 2 cbr 1000 ------- 1 1.0 2.0 103 103
- 0.209867 1 2 cbr 1000 ------- 1 1.0 2.0 103 103
r 0.209867 1 2 cbr 1000 ------- 1 1.0 2.0 91 91
+ 0.210933 1 2 cbr 1000 ------- 1 1.0 2.0 104 104
- 0.210933 1 2 cbr 1000 ------- 1 1.0 2.0 104 104
r 0.210933 1 2 cbr 1000 ------- 1 1.0 2.0 92 92
+ 0.212 1 2 cbr 1000 ------- 1 1.0 2.0 105 105
- 0.212 1 2 cbr 1000 ------- 1 1.0 2.0 105 105
r 0.212 1 2 cbr 1000 ------- 1 1.0 2.0 93 93
+ 0.213067 1 2 cbr 1000 ------- 1 1.0 2.0 106 106
- 0.213067 1 2 cbr 1000 ------- 1 1.0 2.0 106 106
r 0.213067 1 2 cbr 1000 ------- 1 1.0 2.0 94 94
+ 0.214133 1 2 cbr 1000 ------- 1 1.0 2.0 107 107
- 0.214133 1 2 cbr 1000 ------- 1 1.0 2.0 107 107
r 0.214133 1 2 cbr 1000 ------- 1 1.0 2.0 95 95
+ 0.2152 1 2 cbr 1000 ------- 1 1.0 2.0 108 108
- 0.2152 1 2 cbr 1000 ------- 1 1.0 2.0 108 108
r 0.2152 1 2 cbr 1000 ------- 1 1.0 2.0 96 96
+ 0.216267 1 2 cbr 1000 ------- 1 1.0 2.0 109 109
- 0.216267 1 2 cbr 1000 ------- 1 1.0 2.0 109 109
r 0.216267 1 2 cbr 1000 ------- 1 1.0 2.0 97 97
+ 0.217333 1 2 cbr 1000 ------- 1 1.0 2.0 110 110
- 0.217333 1 2 cbr 1000 ------- 1 1.0 2.0 110 110
r 0.217333 1 2 cbr 1000 ------- 1 1.0 2.0 98 98
+ 0.2184 1 2 cbr 1000 ------- 1 1.0 2.0 111 111
- 0.2184 1 2 cbr 1000 ------- 1 1.0 2.0 111 111
r 0.2184 1 2 cbr 1000 ------- 1 1.0 2.0 99 99
+ 0.219467 1 2 cbr 1000 ------- 1 1.0 2.0 112 112
- 0.219467 1 2 cbr 1000 ------- 1 1.0 2.0 112 112
r 0.219467 1 2 cbr 1000 ------- 1 1.0 2.0 100 100
+ 0.220533 1 2 cbr 1000 ------- 1 1.0 2.0 113 113
- 0.220533 1 2 cbr 1000 ------- 1 1.0 2.0 113 113
r 0.220533 1 2 cbr 1000 ------- 1 1.0 2.0 101 101
+ 0.2216 1 2 cbr 1000 ------- 1 1.0 2.0 114 114
- 0.2216 1 2 cbr 1000 ------- 1 1.0 2.0 114 114
r 0.2216 1 2 cbr 1000 ------- 1 1.0 2.0 102 102
+ 0.222667 1 2 cbr 1000 ------- 1 1.0 2.0 115 115
- 0.222667 1 2 cbr 1000 ------- 1 1.0 2.0 115 115
r 0.222667 1 2 cbr 1000 ------- 1 1.0 2.0 103 103
+ 0.223733 1 2 cbr 1000 ------- 1 1.0 2.0 116 116
- 0.223733 1 2 cbr 1000 ------- 1 1.0 2.0 116 116
r 0.223733 1 2 cbr 1000 ------- 1 1.0 2.0 104 104
+ 0.2248 1 2 cbr 1000 ------- 1 1.0 2.0 117 117
- 0.2248 1 2 cbr 1000 ------- 1 1.0 2.0 117 117
r 0.2248 1 2 cbr 1000 ------- 1 1.0 2.0 105 105
+ 0.225867 1 2 cbr 1000 ------- 1 1.0 2.0 118 118
- 0.225867 1 2 cbr 1000 ------- 1 1.0 2.0 118 118
r 0.225867 1 2 cbr 1000 ------- 1 1.0 2.0 106 106
+ 0.226933 1 2 cbr 1000 ------- 1 1.0 2.0 119 119
- 0.226933 1 2 cbr 1000 ------- 1 1.0 2.0 119 119
r 0.226933 1 2 cbr 1000 ------- 1 1.0 2.0 107 107
+ 0.228 1 2 cbr 1000 ------- 1 1.0 2.0 120 120
- 0.228 1 2 cbr 1000 ------- 1 1.0 2.0 120 120
r 0.228 1 2 cbr 1000 ------- 1 1.0 2.0 108 108
+ 0.229067 1 2 cbr 1000 ------- 1 1.0 2.0 121 121
- 0.229067 1 2 cbr 1000 ------- 1 1.0 2.0 121 121
r 0.229067 1 2 cbr 1000 ------- 1 1.0 2.0 109 109
+ 0.230133 1 2 cbr 1000 ------- 1 1.0 2.0 122 122
- 0.230133 1 2 cbr 1000 ------- 1 1.0 2.0 122 122
r 0.230133 1 2 cbr 1000 ------- 1 1.0 2.0 110 110
+ 0.2312 1 2 cbr 1000 ------- 1 1.0 2.0 123 123
- 0.2312 1 2 cbr 1000 ------- 1 1.0 2.0 123 123
r 0.2312 1 2 cbr 1000 ------- 1 1.0 2.0 111 111
+ 0.232267 1 2 cbr 1000 ------- 1 1.0 2.0 124 124
- 0.232267 1 2 cbr 1000 ------- 1 1.0 2.0 124 124
r 0.232267 1 2 cbr 1000 ------- 1 1.0 2.0 112 112
+ 0.233333 1 2 cbr 1000 ------- 1 1.0 2.0 125 125
- 0.233333 1 2 cbr 1000 ------- 1 1.0 2.0 125 125
r 0.233333 1 2 cbr 1000 ------- 1 1.0 2.0 113 113
+ 0.2344 1 2 cbr 1000 ------- 1 1.0 2.0 126 126
- 0.2344 1 2 cbr 1000 ------- 1 1.0 2.0 126 126
r 0.2344 1 2 cbr 1000 ------- 1 1.0 2.0 114 114
+ 0.235467 1 2 cbr 1000 ------- 1 1.0 2.0 127 127
- 0.235467 1 2 cbr 1000 ------- 1 1.0 2.0 127 127
r 0.235467 1 2 cbr 1000 ------- 1 1.0 2.0 115 115
+ 0.236533 1 2 cbr 1000 ------- 1 1.0 2.0 128 128
- 0.236533 1 2 cbr 1000 ------- 1 1.0 2.0 128 128
r 0.236533 1 2 cbr 1000 ------- 1 1.0 2.0 116 116
+ 0.2376 1 2 cbr 1000 ------- 1 1.0 2.0 129 129
- 0.2376 1 2 cbr 1000 ------- 1 1.0 2.0 129 129
r 0.2376 1 2 cbr 1000 ------- 1 1.0 2.0 117 117
+ 0.238667 1 2 cbr 1000 ------- 1 1.0 2.0 130 130
- 0.238667 1 2 cbr 1000 ------- 1 1.0 2.0 130 130
r 0.238667 1 2 cbr 1000 ------- 1 1.0 2.0 118 118
+ 0.239733 1 2 cbr 1000 ------- 1 1.0 2.0 131 131
- 0.239733 1 2 cbr 1000 ------- 1 1.0 2.0 131 131
r 0.239733 1 2 cbr 1000 ------- 1 1.0 2.0 119 119
+ 0.2408 1 2 cbr 1000 ------- 1 1.0 2.0 132 132
- 0.2408 1 2 cbr 1000 ------- 1 1.0 2.0 132 132
r 0.2408 1 2 cbr 1000 ------- 1 1.0 2.0 120 120
+ 0.241867 1 2 cbr 1000 ------- 1 1.0 2.0 133 133
- 0.241867 1 2 cbr 1000 ------- 1 1.0 2.0 133 133
r 0.241867 1 2 cbr 1000 ------- 1 1.0 2.0 121 121
+ 0.242933 1 2 cbr 1000 ------- 1 1.0 2.0 134 134
- 0.242933 1 2 cbr 1000 ------- 1 1.0 2.0 134 134
r 0.242933 1 2 cbr 1000 ------- 1 1.0 2.0 122 122
+ 0.244 1 2 cbr 1000 ------- 1 1.0 2.0 135 135
- 0.244 1 2 cbr 1000 ------- 1 1.0 2.0 135 135
r 0.244 1 2 cbr 1000 ------- 1 1.0 2.0 123 123
+ 0.245067 1 2 cbr 1000 ------- 1 1.0 2.0 136 136
- 0.245067 1 2 cbr 1000 ------- 1 1.0 2.0 136 136
r 0.245067 1 2 cbr 1000 ------- 1 1.0 2.0 124 124
+ 0.246133 1 2 cbr 1000 ------- 1 1.0 2.0 137 137
- 0.246133 1 2 cbr 1000 ------- 1 1.0 2.0 137 137
r 0.246133 1 2 cbr 1000 ------- 1 1.0 2.0 125 125
+ 0.2472 1 2 cbr 1000 ------- 1 1.0 2.0 138 138
- 0.2472 1 2 cbr 1000 ------- 1 1.0 2.0 138 138
r 0.2472 1 2 cbr 1000 ------- 1 1.0 2.0 126 126
+ 0.248267 1 2 cbr 1000 ------- 1 1.0 2.0 139 139
- 0.248267 1 2 cbr 1000 ------- 1 1.0 2.0 139 139
r 0.248267 1 2 cbr 1000 ------- 1 1.0 2.0 127 127
+ 0.249333 1 2 cbr 1000 ------- 1 1.0 2.0 140 140
- 0.249333 1 2 cbr 1000 ------- 1 1.0 2.0 140 140
r 0.249333 1 2 cbr 1000 ------- 1 1.0 2.0 128 128
+ 0.2504 1 2 cbr 1000 ------- 1 1.0 2.0 141 141
- 0.2504 1 2 cbr 1000 ------- 1 1.0 2.0 141 141
r 0.2504 1 2 cbr 1000 ------- 1 1.0 2.0 129 129
+ 0.251467 1 2 cbr 1000 ------- 1 1.0 2.0 142 142
- 0.251467 1 2 cbr 1000 ------- 1 1.0 2.0 142 142
r 0.251467 1 2 cbr 1000 ------- 1 1.0 2.0 130 130
+ 0.252533 1 2 cbr 1000 ------- 1 1.0 2.0 143 143
- 0.252533 1 2 cbr 1000 ------- 1 1.0 2.0 143 143
r 0.252533 1 2 cbr 1000 ------- 1 1.0 2.0 131 131
+ 0.2536 1 2 cbr 1000 ------- 1 1.0 2.0 144 144
- 0.2536 1 2 cbr 1000 ------- 1 1.0 2.0 144 144
r 0.2536 1 2 cbr 1000 ------- 1 1.0 2.0 132 132
+ 0.254667 1 2 cbr 1000 ------- 1 1.0 2.0 145 145
- 0.254667 1 2 cbr 1000 ------- 1 1.0 2.0 145 145
r 0.254667 1 2 cbr 1000 ------- 1 1.0 2.0 133 133
+ 0.255733 1 2 cbr 1000 ------- 1 1.0 2.0 146 146
- 0.255733 1 2 cbr 1000 ------- 1 1.0 2.0 146 146
r 0.255733 1 2 cbr 1000 ------- 1 1.0 2.0 134 134
+ 0.2568 1 2 cbr 1000 ------- 1 1.0 2.0 147 147
- 0.2568 1 2 cbr 1000 ------- 1 1.0 2.0 147 147
r 0.2568 1 2 cbr 1000 ------- 1 1.0 2.0 135 135
+ 0.257867 1 2 cbr 1000 ------- 1 1.0 2.0 148 148
- 0.257867 1 2 cbr 1000 ------- 1 1.0 2.0 148 148
r 0.257867 1 2 cbr 1000 ------- 1 1.0 2.0 136 136
+ 0.258933 1 2 cbr 1000 ------- 1 1.0 2.0 149 149
- 0.258933 1 2 cbr 1000 ------- 1 1.0 2.0 149 149
r 0.258933 1 2 cbr 1000 ------- 1 1.0 2.0 137 137
+ 0.26 1 2 cbr 1000 ------- 1 1.0 2.0 150 150
- 0.26 1 2 cbr 1000 ------- 1 1.0 2.0 150 150
r 0.26 1 2 cbr 1000 ------- 1 1.0 2.0 138 138
+ 0.261067 1 2 cbr 1000 ------- 1 1.0 2.0 151 151
- 0.261067 1 2 cbr 1000 ------- 1 1.0 2.0 151 151
r 0.261067 1 2 cbr 1000 ------- 1 1.0 2.0 139 139
+ 0.262133 1 2 cbr 1000 ------- 1 1.0 2.0 152 152
- 0.262133 1 2 cbr 1000 ------- 1 1.0 2.0 152 152
r 0.262133 1 2 cbr 1000 ------- 1 1.0 2.0 140 140
+ 0.2632 1 2 cbr 1000 ------- 1 1.0 2.0 153 153
- 0.2632 1 2 cbr 1000 ------- 1 1.0 2.0 153 153
r 0.2632 1 2 cbr 1000 ------- 1 1.0 2.0 141 141
+ 0.264267 1 2 cbr 1000 ------- 1 1.0 2.0 154 154
- 0.264267 1 2 cbr 1000 ------- 1 1.0 2.0 154 154
r 0.264267 1 2 cbr 1000 ------- 1 1.0 2.0 142 142
+ 0.265333 1 2 cbr 1000 ------- 1 1.0 2.0 155 155
- 0.265333 1 2 cbr 1000 ------- 1 1.0 2.0 155 155
r 0.265333 1 2 cbr 1000 ------- 1 1.0 2.0 143 143
+ 0.2664 1 2 cbr 1000 ------- 1 1.0 2.0 156 156
- 0.2664 1 2 cbr 1000 ------- 1 1.0 2.0 156 156
r 0.2664 1 2 cbr 1000 ------- 1 1.0 2.0 144 144
+ 0.267467 1 2 cbr 1000 ------- 1 1.0 2.0 157 157
- 0.267467 1 2 cbr 1000 ------- 1 1.0 2.0 157 157
r 0.267467 1 2 cbr 1000 ------- 1 1.0 2.0 145 145
+ 0.268533 1 2 cbr 1000 ------- 1 1.0 2.0 158 158
- 0.268533 1 2 cbr 1000 ------- 1 1.0 2.0 158 158
r 0.268533 1 2 cbr 1000 ------- 1 1.0 2.0 146 146
+ 0.2696 1 2 cbr 1000 ------- 1 1.0 2.0 159 159
- 0.2696 1 2 cbr 1000 ------- 1 1.0 2.0 159 159
r 0.2696 1 2 cbr 1000 ------- 1 1.0 2.0 147 147
+ 0.270667 1 2 cbr 1000 ------- 1 1.0 2.0 160 160
- 0.270667 1 2 cbr 1000 ------- 1 1.0 2.0 160 160
r 0.270667 1 2 cbr 1000 ------- 1 1.0 2.0 148 148
+ 0.271733 1 2 cbr 1000 ------- 1 1.0 2.0 161 161
- 0.271733 1 2 cbr 1000 ------- 1 1.0 2.0 161 161
r 0.271733 1 2 cbr 1000 ------- 1 1.0 2.0 149 149
+ 0.2728 1 2 cbr 1000 ------- 1 1.0 2.0 162 162
- 0.2728 1 2 cbr 1000 ------- 1 1.0 2.0 162 162
r 0.2728 1 2 cbr 1000 ------- 1 1.0 2.0 150 150
+ 0.273867 1 2 cbr 1000 ------- 1 1.0 2.0 163 163
- 0.273867 1 2 cbr 1000 ------- 1 1.0 2.0 163 163
r 0.273867 1 2 cbr 1000 ------- 1 1.0 2.0 151 151
+ 0.274933 1 2 cbr 1000 ------- 1 1.0 2.0 164 164
- 0.274933 1 2 cbr 1000 ------- 1 1.0 2.0 164 164
r 0.274933 1 2 cbr 1000 ------- 1 1.0 2.0 152 152
+ 0.276 1 2 cbr 1000 ------- 1 1.0 2.0 165 165
- 0.276 1 2 cbr 1000 ------- 1 1.0 2.0 165 165
r 0.276 1 2 cbr 1000 ------- 1 1.0 2.0 153 153
+ 0.277067 1 2 cbr 1000 ------- 1 1.0 2.0 166 166
- 0.277067 1 2 cbr 1000 ------- 1 1.0 2.0 166 166
r 0.277067 1 2 cbr 1000 ------- 1 1.0 2.0 154 154
+ 0.278133 1 2 cbr 1000 ------- 1 1.0 2.0 167 167
- 0.278133 1 2 cbr 1000 ------- 1 1.0 2.0 167 167
r 0.278133 1 2 cbr 1000 ------- 1 1.0 2.0 155 155
+ 0.2792 1 2 cbr 1000 ------- 1 1.0 2.0 168 168
- 0.2792 1 2 cbr 1000 ------- 1 1.0 2.0 168 168
r 0.2792 1 2 cbr 1000 ------- 1 1.0 2.0 156 156
+ 0.280267 1 2 cbr 1000 ------- 1 1.0 2.0 169 169
- 0.280267 1 2 cbr 1000 ------- 1 1.0 2.0 169 169
r 0.280267 1 2 cbr 1000 ------- 1 1.0 2.0 157 157
+ 0.281333 1 2 cbr 1000 ------- 1 1.0 2.0 170 170
- 0.281333 1 2 cbr 1000 ------- 1 1.0 2.0 170 170
r 0.281333 1 2 cbr 1000 ------- 1 1.0 2.0 158 158
+ 0.2824 1 2 cbr 1000 ------- 1 1.0 2.0 171 171
- 0.2824 1 2 cbr 1000 ------- 1 1.0 2.0 171 171
r 0.2824 1 2 cbr 1000 ------- 1 1.0 2.0 159 159
+ 0.283467 1 2 cbr 1000 ------- 1 1.0 2.0 172 172
- 0.283467 1 2 cbr 1000 ------- 1 1.0 2.0 172 172
r 0.283467 1 2 cbr 1000 ------- 1 1.0 2.0 160 160
+ 0.284533 1 2 cbr 1000 ------- 1 1.0 2.0 173 173
- 0.284533 1 2 cbr 1000 ------- 1 1.0 2.0 173 173
r 0.284533 1 2 cbr 1000 ------- 1 1.0 2.0 161 161
+ 0.2856 1 2 cbr 1000 ------- 1 1.0 2.0 174 174
- 0.2856 1 2 cbr 1000 ------- 1 1.0 2.0 174 174
r 0.2856 1 2 cbr 1000 ------- 1 1.0 2.0 162 162
+ 0.286667 1 2 cbr 1000 ------- 1 1.0 2.0 175 175
- 0.286667 1 2 cbr 1000 ------- 1 1.0 2.0 175 175
r 0.286667 1 2 cbr 1000 ------- 1 1.0 2.0 163 163
+ 0.287733 1 2 cbr 1000 ------- 1 1.0 2.0 176 176
- 0.287733 1 2 cbr 1000 ------- 1 1.0 2.0 176 176
r 0.287733 1 2 cbr 1000 ------- 1 1.0 2.0 164 164
+ 0.2888 1 2 cbr 1000 ------- 1 1.0 2.0 177 177
- 0.2888 1 2 cbr 1000 ------- 1 1.0 2.0 177 177
r 0.2888 1 2 cbr 1000 ------- 1 1.0 2.0 165 165
+ 0.289867 1 2 cbr 1000 ------- 1 1.0 2.0 178 178
- 0.289867 1 2 cbr 1000 ------- 1 1.0 2.0 178 178
r 0.289867 1 2 cbr 1000 ------- 1 1.0 2.0 166 166
+ 0.290933 1 2 cbr 1000 ------- 1 1.0 2.0 179 179
- 0.290933 1 2 cbr 1000 ------- 1 1.0 2.0 179 179
r 0.290933 1 2 cbr 1000 ------- 1 1.0 2.0 167 167
+ 0.292 1 2 cbr 1000 ------- 1 1.0 2.0 180 180
- 0.292 1 2 cbr 1000 ------- 1 1.0 2.0 180 180
r 0.292 1 2 cbr 1000 ------- 1 1.0 2.0 168 168
+ 0.293067 1 2 cbr 1000 ------- 1 1.0 2.0 181 181
- 0.293067 1 2 cbr 1000 ------- 1 1.0 2.0 181 181
r 0.293067 1 2 cbr 1000 ------- 1 1.0 2.0 169 169
+ 0.294133 1 2 cbr 1000 ------- 1 1.0 2.0 182 182
- 0.294133 1 2 cbr 1000 ------- 1 1.0 2.0 182 182
r 0.294133 1 2 cbr 1000 ------- 1 1.0 2.0 170 170
+ 0.2952 1 2 cbr 1000 ------- 1 1.0 2.0 183 183
- 0.2952 1 2 cbr 1000 ------- 1 1.0 2.0 183 183
r 0.2952 1 2 cbr 1000 ------- 1 1.0 2.0 171 171
+ 0.296267 1 2 cbr 1000 ------- 1 1.0 2.0 184 184
- 0.296267 1 2 cbr 1000 ------- 1 1.0 2.0 184 184
r 0.296267 1 2 cbr 1000 ------- 1 1.0 2.0 172 172
+ 0.297333 1 2 cbr 1000 ------- 1 1.0 2.0 185 185
- 0.297333 1 2 cbr 1000 ------- 1 1.0 2.0 185 185
r 0.297333 1 2 cbr 1000 ------- 1 1.0 2.0 173 173
+ 0.2984 1 2 cbr 1000 ------- 1 1.0 2.0 186 186
- 0.2984 1 2 cbr 1000 ------- 1 1.0 2.0 186 186
r 0.2984 1 2 cbr 1000 ------- 1 1.0 2.0 174 174
+ 0.299467 1 2 cbr 1000 ------- 1 1.0 2.0 187 187
- 0.299467 1 2 cbr 1000 ------- 1 1.0 2.0 187 187
r 0.299467 1 2 cbr 1000 ------- 1 1.0 2.0 175 175
+ 0.300533 1 2 cbr 1000 ------- 1 1.0 2.0 188 188
- 0.300533 1 2 cbr 1000 ------- 1 1.0 2.0 188 188
r 0.300533 1 2 cbr 1000 ------- 1 1.0 2.0 176 176
+ 0.3016 1 2 cbr 1000 ------- 1 1.0 2.0 189 189
- 0.3016 1 2 cbr 1000 ------- 1 1.0 2.0 189 189
r 0.3016 1 2 cbr 1000 ------- 1 1.0 2.0 177 177
+ 0.302667 1 2 cbr 1000 ------- 1 1.0 2.0 190 190
- 0.302667 1 2 cbr 1000 ------- 1 1.0 2.0 190 190
r 0.302667 1 2 cbr 1000 ------- 1 1.0 2.0 178 178
+ 0.303733 1 2 cbr 1000 ------- 1 1.0 2.0 191 191
- 0.303733 1 2 cbr 1000 ------- 1 1.0 2.0 191 191
r 0.303733 1 2 cbr 1000 ------- 1 1.0 2.0 179 179
+ 0.3048 1 2 cbr 1000 ------- 1 1.0 2.0 192 192
- 0.3048 1 2 cbr 1000 ------- 1 1.0 2.0 192 192
r 0.3048 1 2 cbr 1000 ------- 1 1.0 2.0 180 180
+ 0.305867 1 2 cbr 1000 ------- 1 1.0 2.0 193 193
- 0.305867 1 2 cbr 1000 ------- 1 1.0 2.0 193 193
r 0.305867 1 2 cbr 1000 ------- 1 1.0 2.0 181 181
+ 0.306933 1 2 cbr 1000 ------- 1 1.0 2.0 194 194
- 0.306933 1 2 cbr 1000 ------- 1 1.0 2.0 194 194
r 0.306933 1 2 cbr 1000 ------- 1 1.0 2.0 182 182
+ 0.308 1 2 cbr 1000 ------- 1 1.0 2.0 195 195
- 0.308 1 2 cbr 1000 ------- 1 1.0 2.0 195 195
r 0.308 1 2 cbr 1000 ------- 1 1.0 2.0 183 183
+ 0.309067 1 2 cbr 1000 ------- 1 1.0 2.0 196 196
- 0.309067 1 2 cbr 1000 ------- 1 1.0 2.0 196 196
r 0.309067 1 2 cbr 1000 ------- 1 1.0 2.0 184 184
+ 0.310133 1 2 cbr 1000 ------- 1 1.0 2.0 197 197
- 0.310133 1 2 cbr 1000 ------- 1 1.0 2.0 197 197
r 0.310133 1 2 cbr 1000 ------- 1 1.0 2.0 185 185
+ 0.3112 1 2 cbr 1000 ------- 1 1.0 2.0 198 198
- 0.3112 1 2 cbr 1000 ------- 1 1.0 2.0 198 198
r 0.3112 1 2 cbr 1000 ------- 1 1.0 2.0 186 186
+ 0.312267 1 2 cbr 1000 ------- 1 1.0 2.0 199 199
- 0.312267 1 2 cbr 1000 ------- 1 1.0 2.0 199 199
r 0.312267 1 2 cbr 1000 ------- 1 1.0 2.0 187 187
+ 0.313333 1 2 cbr 1000 ------- 1 1.0 2.0 200 200
- 0.313333 1 2 cbr 1000 ------- 1 1.0 2.0 200 200
r 0.313333 1 2 cbr 1000 ------- 1 1.0 2.0 188 188
+ 0.3144 1 2 cbr 1000 ------- 1 1.0 2.0 201 201
- 0.3144 1 2 cbr 1000 ------- 1 1.0 2.0 201 201
r 0.3144 1 2 cbr 1000 ------- 1 1.0 2.0 189 189
+ 0.315467 1 2 cbr 1000 ------- 1 1.0 2.0 202 202
- 0.315467 1 2 cbr 1000 ------- 1 1.0 2.0 202 202
r 0.315467 1 2 cbr 1000 ------- 1 1.0 2.0 190 190
+ 0.316533 1 2 cbr 1000 ------- 1 1.0 2.0 203 203
- 0.316533 1 2 cbr 1000 ------- 1 1.0 2.0 203 203
r 0.316533 1 2 cbr 1000 ------- 1 1.0 2.0 191 191
+ 0.3176 1 2 cbr 1000 ------- 1 1.0 2.0 204 204
- 0.3176 1 2 cbr 1000 ------- 1 1.0 2.0 204 204
r 0.3176 1 2 cbr 1000 ------- 1 1.0 2.0 192 192
+ 0.318667 1 2 cbr 1000 ------- 1 1.0 2.0 205 205
- 0.318667 1 2 cbr 1000 ------- 1 1.0 2.0 205 205
r 0.318667 1 2 cbr 1000 ------- 1 1.0 2.0 193 193
+ 0.319733 1 2 cbr 1000 ------- 1 1.0 2.0 206 206
- 0.319733 1 2 cbr 1000 ------- 1 1.0 2.0 206 206
r 0.319733 1 2 cbr 1000 ------- 1 1.0 2.0 194 194
+ 0.3208 1 2 cbr 1000 ------- 1 1.0 2.0 207 207
- 0.3208 1 2 cbr 1000 ------- 1 1.0 2.0 207 207
r 0.3208 1 2 cbr 1000 ------- 1 1.0 2.0 195 195
+ 0.321867 1 2 cbr 1000 ------- 1 1.0 2.0 208 208
- 0.321867 1 2 cbr 1000 ------- 1 1.0 2.0 208 208
r 0.321867 1 2 cbr 1000 ------- 1 1.0 2.0 196 196
+ 0.322933 1 2 cbr 1000 ------- 1 1.0 2.0 209 209
- 0.322933 1 2 cbr 1000 ------- 1 1.0 2.0 209 209
r 0.322933 1 2 cbr 1000 ------- 1 1.0 2.0 197 197
+ 0.324 1 2 cbr 1000 ------- 1 1.0 2.0 210 210
- 0.324 1 2 cbr 1000 ------- 1 1.0 2.0 210 210
r 0.324 1 2 cbr 1000 ------- 1 1.0 2.0 198 198
+ 0.325067 1 2 cbr 1000 ------- 1 1.0 2.0 211 211