+ 0.1 1 2 cbr 1000 ------- 1 1.0 2.0 0 0
- 0.1 1 2 cbr 1000 ------- 1 1.0 2.0 0 0
+ 0.100833 1 2 cbr 1000 ------- 1 1.0 2.0 1 1
- 0.100833 1 2 cbr 1000 ------- 1 1.0 2.0 1 1
+ 0.101667 1 2 cbr 1000 ------- 1 1.0 2.0 2 2
- 0.101667 1 2 cbr 1000 ------- 1 1.0 2.0 2 2
+ 0.1025 1 2 cbr 1000 ------- 1 1.0 2.0 3 3
- 0.1025 1 2 cbr 1000 ------- 1 1.0 2.0 3 3
+ 0.103333 1 2 cbr 1000 ------- 1 1.0 2.0 4 4
- 0.103333 1 2 cbr 1000 ------- 1 1.0 2.0 4 4
+ 0.104167 1 2 cbr 1000 ------- 1 1.0 2.0 5 5
- 0.104167 1 2 cbr 1000 ------- 1 1.0 2.0 5 5
+ 0.105 1 2 cbr 1000 ------- 1 1.0 2.0 6 6
- 0.105 1 2 cbr 1000 ------- 1 1.0 2.0 6 6
+ 0.105833 1 2 cbr 1000 ------- 1 1.0 2.0 7 7
- 0.105833 1 2 cbr 1000 ------- 1 1.0 2.0 7 7
+ 0.106667 1 2 cbr 1000 ------- 1 1.0 2.0 8 8
- 0.106667 1 2 cbr 1000 ------- 1 1.0 2.0 8 8
+ 0.1075 1 2 cbr 1000 ------- 1 1.0 2.0 9 9
- 0.1075 1 2 cbr 1000 ------- 1 1.0 2.0 9 9
+ 0.108333 1 2 cbr 1000 ------- 1 1.0 2.0 10 10
- 0.108333 1 2 cbr 1000 ------- 1 1.0 2.0 10 10
+ 0.109167 1 2 cbr 1000 ------- 1 1.0 2.0 11 11
- 0.109167 1 2 cbr 1000 ------- 1 1.0 2.0 11 11
+ 0.11 1 2 cbr 1000 ------- 1 1.0 2.0 12 12
- 0.11 1 2 cbr 1000 ------- 1 1.0 2.0 12 12
+ 0.110833 1 2 cbr 1000 ------- 1 1.0 2.0 13 13
- 0.110833 1 2 cbr 1000 ------- 1 1.0 2.0 13 13
+ 0.111667 1 2 cbr 1000 ------- 1 1.0 2.0 14 14
- 0.111667 1 2 cbr 1000 ------- 1 1.0 2.0 14 14
+ 0.1125 1 2 cbr 1000 ------- 1 1.0 2.0 15 15
- 0.1125 1 2 cbr 1000 ------- 1 1.0 2.0 15 15
r 0.1128 1 2 cbr 1000 ------- 1 1.0 2.0 0 0
+ 0.113333 1 2 cbr 1000 ------- 1 1.0 2.0 16 16
- 0.113333 1 2 cbr 1000 ------- 1 1.0 2.0 16 16
r 0.113633 1 2 cbr 1000 ------- 1 1.0 2.0 1 1
+ 0.114167 1 2 cbr 1000 ------- 1 1.0 2.0 17 17
- 0.114167 1 2 cbr 1000 ------- 1 1.0 2.0 17 17
r 0.114467 1 2 cbr 1000 ------- 1 1.0 2.0 2 2
+ 0.115 1 2 cbr 1000 ------- 1 1.0 2.0 18 18
- 0.115 1 2 cbr 1000 ------- 1 1.0 2.0 18 18
r 0.1153 1 2 cbr 1000 ------- 1 1.0 2.0 3 3
+ 0.115833 1 2 cbr 1000 ------- 1 1.0 2.0 19 19
- 0.115833 1 2 cbr 1000 ------- 1 1.0 2.0 19 19
r 0.116133 1 2 cbr 1000 ------- 1 1.0 2.0 4 4
+ 0.116667 1 2 cbr 1000 ------- 1 1.0 2.0 20 20
- 0.116667 1 2 cbr 1000 ------- 1 1.0 2.0 20 20
r 0.116967 1 2 cbr 1000 ------- 1 1.0 2.0 5 5
+ 0.1175 1 2 cbr 1000 ------- 1 1.0 2.0 21 21
- 0.1175 1 2 cbr 1000 ------- 1 1.0 2.0 21 21
r 0.1178 1 2 cbr 1000 ------- 1 1.0 2.0 6 6
+ 0.118333 1 2 cbr 1000 ------- 1 1.0 2.0 22 22
- 0.118333 1 2 cbr 1000 ------- 1 1.0 2.0 22 22
r 0.118633 1 2 cbr 1000 ------- 1 1.0 2.0 7 7
+ 0.119167 1 2 cbr 1000 ------- 1 1.0 2.0 23 23
- 0.119167 1 2 cbr 1000 ------- 1 1.0 2.0 23 23
r 0.119467 1 2 cbr 1000 ------- 1 1.0 2.0 8 8
+ 0.12 1 2 cbr 1000 ------- 1 1.0 2.0 24 24
- 0.12 1 2 cbr 1000 ------- 1 1.0 2.0 24 24
r 0.1203 1 2 cbr 1000 ------- 1 1.0 2.0 9 9
+ 0.120833 1 2 cbr 1000 ------- 1 1.0 2.0 25 25
- 0.120833 1 2 cbr 1000 ------- 1 1.0 2.0 25 25
r 0.121133 1 2 cbr 1000 ------- 1 1.0 2.0 10 10
+ 0.121667 1 2 cbr 1000 ------- 1 1.0 2.0 26 26
- 0.121667 1 2 cbr 1000 ------- 1 1.0 2.0 26 26
r 0.121967 1 2 cbr 1000 ------- 1 1.0 2.0 11 11
+ 0.1225 1 2 cbr 1000 ------- 1 1.0 2.0 27 27
- 0.1225 1 2 cbr 1000 ------- 1 1.0 2.0 27 27
r 0.1228 1 2 cbr 1000 ------- 1 1.0 2.0 12 12
+ 0.123333 1 2 cbr 1000 ------- 1 1.0 2.0 28 28
- 0.123333 1 2 cbr 1000 ------- 1 1.0 2.0 28 28
r 0.123633 1 2 cbr 1000 ------- 1 1.0 2.0 13 13
+ 0.124167 1 2 cbr 1000 ------- 1 1.0 2.0 29 29
- 0.124167 1 2 cbr 1000 ------- 1 1.0 2.0 29 29
r 0.124467 1 2 cbr 1000 ------- 1 1.0 2.0 14 14
+ 0.125 1 2 cbr 1000 ------- 1 1.0 2.0 30 30
- 0.125 1 2 cbr 1000 ------- 1 1.0 2.0 30 30
r 0.1253 1 2 cbr 1000 ------- 1 1.0 2.0 15 15
+ 0.125833 1 2 cbr 1000 ------- 1 1.0 2.0 31 31
- 0.125833 1 2 cbr 1000 ------- 1 1.0 2.0 31 31
r 0.126133 1 2 cbr 1000 ------- 1 1.0 2.0 16 16
+ 0.126667 1 2 cbr 1000 ------- 1 1.0 2.0 32 32
- 0.126667 1 2 cbr 1000 ------- 1 1.0 2.0 32 32
r 0.126967 1 2 cbr 1000 ------- 1 1.0 2.0 17 17
+ 0.1275 1 2 cbr 1000 ------- 1 1.0 2.0 33 33
- 0.1275 1 2 cbr 1000 ------- 1 1.0 2.0 33 33
r 0.1278 1 2 cbr 1000 ------- 1 1.0 2.0 18 18
+ 0.128333 1 2 cbr 1000 ------- 1 1.0 2.0 34 34
- 0.128333 1 2 cbr 1000 ------- 1 1.0 2.0 34 34
r 0.128633 1 2 cbr 1000 ------- 1 1.0 2.0 19 19
+ 0.129167 1 2 cbr 1000 ------- 1 1.0 2.0 35 35
- 0.129167 1 2 cbr 1000 ------- 1 1.0 2.0 35 35
r 0.129467 1 2 cbr 1000 ------- 1 1.0 2.0 20 20
+ 0.13 1 2 cbr 1000 ------- 1 1.0 2.0 36 36
- 0.13 1 2 cbr 1000 ------- 1 1.0 2.0 36 36
r 0.1303 1 2 cbr 1000 ------- 1 1.0 2.0 21 21
+ 0.130833 1 2 cbr 1000 ------- 1 1.0 2.0 37 37
- 0.130833 1 2 cbr 1000 ------- 1 1.0 2.0 37 37
r 0.131133 1 2 cbr 1000 ------- 1 1.0 2.0 22 22
+ 0.131667 1 2 cbr 1000 ------- 1 1.0 2.0 38 38
- 0.131667 1 2 cbr 1000 ------- 1 1.0 2.0 38 38
r 0.131967 1 2 cbr 1000 ------- 1 1.0 2.0 23 23
+ 0.1325 1 2 cbr 1000 ------- 1 1.0 2.0 39 39
- 0.1325 1 2 cbr 1000 ------- 1 1.0 2.0 39 39
r 0.1328 1 2 cbr 1000 ------- 1 1.0 2.0 24 24
+ 0.133333 1 2 cbr 1000 ------- 1 1.0 2.0 40 40
- 0.133333 1 2 cbr 1000 ------- 1 1.0 2.0 40 40
r 0.133633 1 2 cbr 1000 ------- 1 1.0 2.0 25 25
+ 0.134167 1 2 cbr 1000 ------- 1 1.0 2.0 41 41
- 0.134167 1 2 cbr 1000 ------- 1 1.0 2.0 41 41
r 0.134467 1 2 cbr 1000 ------- 1 1.0 2.0 26 26
+ 0.135 1 2 cbr 1000 ------- 1 1.0 2.0 42 42
- 0.135 1 2 cbr 1000 ------- 1 1.0 2.0 42 42
r 0.1353 1 2 cbr 1000 ------- 1 1.0 2.0 27 27
+ 0.135833 1 2 cbr 1000 ------- 1 1.0 2.0 43 43
- 0.135833 1 2 cbr 1000 ------- 1 1.0 2.0 43 43
r 0.136133 1 2 cbr 1000 ------- 1 1.0 2.0 28 28
+ 0.136667 1 2 cbr 1000 ------- 1 1.0 2.0 44 44
- 0.136667 1 2 cbr 1000 ------- 1 1.0 2.0 44 44
r 0.136967 1 2 cbr 1000 ------- 1 1.0 2.0 29 29
+ 0.1375 1 2 cbr 1000 ------- 1 1.0 2.0 45 45
- 0.1375 1 2 cbr 1000 ------- 1 1.0 2.0 45 45
r 0.1378 1 2 cbr 1000 ------- 1 1.0 2.0 30 30
+ 0.138333 1 2 cbr 1000 ------- 1 1.0 2.0 46 46
- 0.138333 1 2 cbr 1000 ------- 1 1.0 2.0 46 46
r 0.138633 1 2 cbr 1000 ------- 1 1.0 2.0 31 31
+ 0.139167 1 2 cbr 1000 ------- 1 1.0 2.0 47 47
- 0.139167 1 2 cbr 1000 ------- 1 1.0 2.0 47 47
r 0.139467 1 2 cbr 1000 ------- 1 1.0 2.0 32 32
+ 0.14 1 2 cbr 1000 ------- 1 1.0 2.0 48 48
- 0.14 1 2 cbr 1000 ------- 1 1.0 2.0 48 48
r 0.1403 1 2 cbr 1000 ------- 1 1.0 2.0 33 33
+ 0.140833 1 2 cbr 1000 ------- 1 1.0 2.0 49 49
- 0.140833 1 2 cbr 1000 ------- 1 1.0 2.0 49 49
r 0.141133 1 2 cbr 1000 ------- 1 1.0 2.0 34 34
+ 0.141667 1 2 cbr 1000 ------- 1 1.0 2.0 50 50
- 0.141667 1 2 cbr 1000 ------- 1 1.0 2.0 50 50
r 0.141967 1 2 cbr 1000 ------- 1 1.0 2.0 35 35
+ 0.1425 1 2 cbr 1000 ------- 1 1.0 2.0 51 51
- 0.1425 1 2 cbr 1000 ------- 1 1.0 2.0 51 51
r 0.1428 1 2 cbr 1000 ------- 1 1.0 2.0 36 36
+ 0.143333 1 2 cbr 1000 ------- 1 1.0 2.0 52 52
- 0.143333 1 2 cbr 1000 ------- 1 1.0 2.0 52 52
r 0.143633 1 2 cbr 1000 ------- 1 1.0 2.0 37 37
+ 0.144167 1 2 cbr 1000 ------- 1 1.0 2.0 53 53
- 0.144167 1 2 cbr 1000 ------- 1 1.0 2.0 53 53
r 0.144467 1 2 cbr 1000 ------- 1 1.0 2.0 38 38
+ 0.145 1 2 cbr 1000 ------- 1 1.0 2.0 54 54
- 0.145 1 2 cbr 1000 ------- 1 1.0 2.0 54 54
r 0.1453 1 2 cbr 1000 ------- 1 1.0 2.0 39 39
+ 0.145833 1 2 cbr 1000 ------- 1 1.0 2.0 55 55
- 0.145833 1 2 cbr 1000 ------- 1 1.0 2.0 55 55
r 0.146133 1 2 cbr 1000 ------- 1 1.0 2.0 40 40
+ 0.146667 1 2 cbr 1000 ------- 1 1.0 2.0 56 56
- 0.146667 1 2 cbr 1000 ------- 1 1.0 2.0 56 56
r 0.146967 1 2 cbr 1000 ------- 1 1.0 2.0 41 41
+ 0.1475 1 2 cbr 1000 ------- 1 1.0 2.0 57 57
- 0.1475 1 2 cbr 1000 ------- 1 1.0 2.0 57 57
r 0.1478 1 2 cbr 1000 ------- 1 1.0 2.0 42 42
+ 0.148333 1 2 cbr 1000 ------- 1 1.0 2.0 58 58
- 0.148333 1 2 cbr 1000 ------- 1 1.0 2.0 58 58
r 0.148633 1 2 cbr 1000 ------- 1 1.0 2.0 43 43
+ 0.149167 1 2 cbr 1000 ------- 1 1.0 2.0 59 59
- 0.149167 1 2 cbr 1000 ------- 1 1.0 2.0 59 59
r 0.149467 1 2 cbr 1000 ------- 1 1.0 2.0 44 44
+ 0.15 1 2 cbr 1000 ------- 1 1.0 2.0 60 60
- 0.15 1 2 cbr 1000 ------- 1 1.0 2.0 60 60
r 0.1503 1 2 cbr 1000 ------- 1 1.0 2.0 45 45
+ 0.150833 1 2 cbr 1000 ------- 1 1.0 2.0 61 61
- 0.150833 1 2 cbr 1000 ------- 1 1.0 2.0 61 61
r 0.151133 1 2 cbr 1000 ------- 1 1.0 2.0 46 46
+ 0.151667 1 2 cbr 1000 ------- 1 1.0 2.0 62 62
- 0.151667 1 2 cbr 1000 ------- 1 1.0 2.0 62 62
r 0.151967 1 2 cbr 1000 ------- 1 1.0 2.0 47 47
+ 0.1525 1 2 cbr 1000 ------- 1 1.0 2.0 63 63
- 0.1525 1 2 cbr 1000 ------- 1 1.0 2.0 63 63
r 0.1528 1 2 cbr 1000 ------- 1 1.0 2.0 48 48
+ 0.153333 1 2 cbr 1000 ------- 1 1.0 2.0 64 64
- 0.153333 1 2 cbr 1000 ------- 1 1.0 2.0 64 64
r 0.153633 1 2 cbr 1000 ------- 1 1.0 2.0 49 49
+ 0.154167 1 2 cbr 1000 ------- 1 1.0 2.0 65 65
- 0.154167 1 2 cbr 1000 ------- 1 1.0 2.0 65 65
r 0.154467 1 2 cbr 1000 ------- 1 1.0 2.0 50 50
+ 0.155 1 2 cbr 1000 ------- 1 1.0 2.0 66 66
- 0.155 1 2 cbr 1000 ------- 1 1.0 2.0 66 66
r 0.1553 1 2 cbr 1000 ------- 1 1.0 2.0 51 51
+ 0.155833 1 2 cbr 1000 ------- 1 1.0 2.0 67 67
- 0.155833 1 2 cbr 1000 ------- 1 1.0 2.0 67 67
r 0.156133 1 2 cbr 1000 ------- 1 1.0 2.0 52 52
+ 0.156667 1 2 cbr 1000 ------- 1 1.0 2.0 68 68
- 0.156667 1 2 cbr 1000 ------- 1 1.0 2.0 68 68
r 0.156967 1 2 cbr 1000 ------- 1 1.0 2.0 53 53
+ 0.1575 1 2 cbr 1000 ------- 1 1.0 2.0 69 69
- 0.1575 1 2 cbr 1000 ------- 1 1.0 2.0 69 69
r 0.1578 1 2 cbr 1000 ------- 1 1.0 2.0 54 54
+ 0.158333 1 2 cbr 1000 ------- 1 1.0 2.0 70 70
- 0.158333 1 2 cbr 1000 ------- 1 1.0 2.0 70 70
r 0.158633 1 2 cbr 1000 ------- 1 1.0 2.0 55 55
+ 0.159167 1 2 cbr 1000 ------- 1 1.0 2.0 71 71
- 0.159167 1 2 cbr 1000 ------- 1 1.0 2.0 71 71
r 0.159467 1 2 cbr 1000 ------- 1 1.0 2.0 56 56
+ 0.16 1 2 cbr 1000 ------- 1 1.0 2.0 72 72
- 0.16 1 2 cbr 1000 ------- 1 1.0 2.0 72 72
r 0.1603 1 2 cbr 1000 ------- 1 1.0 2.0 57 57
+ 0.160833 1 2 cbr 1000 ------- 1 1.0 2.0 73 73
- 0.160833 1 2 cbr 1000 ------- 1 1.0 2.0 73 73
r 0.161133 1 2 cbr 1000 ------- 1 1.0 2.0 58 58
+ 0.161667 1 2 cbr 1000 ------- 1 1.0 2.0 74 74
- 0.161667 1 2 cbr 1000 ------- 1 1.0 2.0 74 74
r 0.161967 1 2 cbr 1000 ------- 1 1.0 2.0 59 59
+ 0.1625 1 2 cbr 1000 ------- 1 1.0 2.0 75 75
- 0.1625 1 2 cbr 1000 ------- 1 1.0 2.0 75 75
r 0.1628 1 2 cbr 1000 ------- 1 1.0 2.0 60 60
+ 0.163333 1 2 cbr 1000 ------- 1 1.0 2.0 76 76
- 0.163333 1 2 cbr 1000 ------- 1 1.0 2.0 76 76
r 0.163633 1 2 cbr 1000 ------- 1 1.0 2.0 61 61
+ 0.164167 1 2 cbr 1000 ------- 1 1.0 2.0 77 77
- 0.164167 1 2 cbr 1000 ------- 1 1.0 2.0 77 77
r 0.164467 1 2 cbr 1000 ------- 1 1.0 2.0 62 62
+ 0.165 1 2 cbr 1000 ------- 1 1.0 2.0 78 78
- 0.165 1 2 cbr 1000 ------- 1 1.0 2.0 78 78
r 0.1653 1 2 cbr 1000 ------- 1 1.0 2.0 63 63
+ 0.165833 1 2 cbr 1000 ------- 1 1.0 2.0 79 79
- 0.165833 1 2 cbr 1000 ------- 1 1.0 2.0 79 79
r 0.166133 1 2 cbr 1000 ------- 1 1.0 2.0 64 64
+ 0.166667 1 2 cbr 1000 ------- 1 1.0 2.0 80 80
- 0.166667 1 2 cbr 1000 ------- 1 1.0 2.0 80 80
r 0.166967 1 2 cbr 1000 ------- 1 1.0 2.0 65 65
+ 0.1675 1 2 cbr 1000 ------- 1 1.0 2.0 81 81
- 0.1675 1 2 cbr 1000 ------- 1 1.0 2.0 81 81
r 0.1678 1 2 cbr 1000 ------- 1 1.0 2.0 66 66
+ 0.168333 1 2 cbr 1000 ------- 1 1.0 2.0 82 82
- 0.168333 1 2 cbr 1000 ------- 1 1.0 2.0 82 82
r 0.168633 1 2 cbr 1000 ------- 1 1.0 2.0 67 67
+ 0.169167 1 2 cbr 1000 ------- 1 1.0 2.0 83 83
- 0.169167 1 2 cbr 1000 ------- 1 1.0 2.0 83 83
r 0.169467 1 2 cbr 1000 ------- 1 1.0 2.0 68 68
+ 0.17 1 2 cbr 1000 ------- 1 1.0 2.0 84 84
- 0.17 1 2 cbr 1000 ------- 1 1.0 2.0 84 84
r 0.1703 1 2 cbr 1000 ------- 1 1.0 2.0 69 69
+ 0.170833 1 2 cbr 1000 ------- 1 1.0 2.0 85 85
- 0.170833 1 2 cbr 1000 ------- 1 1.0 2.0 85 85
r 0.171133 1 2 cbr 1000 ------- 1 1.0 2.0 70 70
+ 0.171667 1 2 cbr 1000 ------- 1 1.0 2.0 86 86
- 0.171667 1 2 cbr 1000 ------- 1 1.0 2.0 86 86
r 0.171967 1 2 cbr 1000 ------- 1 1.0 2.0 71 71
+ 0.1725 1 2 cbr 1000 ------- 1 1.0 2.0 87 87
- 0.1725 1 2 cbr 1000 ------- 1 1.0 2.0 87 87
r 0.1728 1 2 cbr 1000 ------- 1 1.0 2.0 72 72
+ 0.173333 1 2 cbr 1000 ------- 1 1.0 2.0 88 88
- 0.173333 1 2 cbr 1000 ------- 1 1.0 2.0 88 88
r 0.173633 1 2 cbr 1000 ------- 1 1.0 2.0 73 73
+ 0.174167 1 2 cbr 1000 ------- 1 1.0 2.0 89 89
- 0.174167 1 2 cbr 1000 ------- 1 1.0 2.0 89 89
r 0.174467 1 2 cbr 1000 ------- 1 1.0 2.0 74 74
+ 0.175 1 2 cbr 1000 ------- 1 1.0 2.0 90 90
- 0.175 1 2 cbr 1000 ------- 1 1.0 2.0 90 90
r 0.1753 1 2 cbr 1000 ------- 1 1.0 2.0 75 75
+ 0.175833 1 2 cbr 1000 ------- 1 1.0 2.0 91 91
- 0.175833 1 2 cbr 1000 ------- 1 1.0 2.0 91 91
r 0.176133 1 2 cbr 1000 ------- 1 1.0 2.0 76 76
+ 0.176667 1 2 cbr 1000 ------- 1 1.0 2.0 92 92
- 0.176667 1 2 cbr 1000 ------- 1 1.0 2.0 92 92
r 0.176967 1 2 cbr 1000 ------- 1 1.0 2.0 77 77
+ 0.1775 1 2 cbr 1000 ------- 1 1.0 2.0 93 93
- 0.1775 1 2 cbr 1000 ------- 1 1.0 2.0 93 93
r 0.1778 1 2 cbr 1000 ------- 1 1.0 2.0 78 78
+ 0.178333 1 2 cbr 1000 ------- 1 1.0 2.0 94 94
- 0.178333 1 2 cbr 1000 ------- 1 1.0 2.0 94 94
r 0.178633 1 2 cbr 1000 ------- 1 1.0 2.0 79 79
+ 0.179167 1 2 cbr 1000 ------- 1 1.0 2.0 95 95
- 0.179167 1 2 cbr 1000 ------- 1 1.0 2.0 95 95
r 0.179467 1 2 cbr 1000 ------- 1 1.0 2.0 80 80
+ 0.18 1 2 cbr 1000 ------- 1 1.0 2.0 96 96
- 0.18 1 2 cbr 1000 ------- 1 1.0 2.0 96 96
r 0.1803 1 2 cbr 1000 ------- 1 1.0 2.0 81 81
+ 0.180833 1 2 cbr 1000 ------- 1 1.0 2.0 97 97
- 0.180833 1 2 cbr 1000 ------- 1 1.0 2.0 97 97
r 0.181133 1 2 cbr 1000 ------- 1 1.0 2.0 82 82
+ 0.181667 1 2 cbr 1000 ------- 1 1.0 2.0 98 98
- 0.181667 1 2 cbr 1000 ------- 1 1.0 2.0 98 98
r 0.181967 1 2 cbr 1000 ------- 1 1.0 2.0 83 83
+ 0.1825 1 2 cbr 1000 ------- 1 1.0 2.0 99 99
- 0.1825 1 2 cbr 1000 ------- 1 1.0 2.0 99 99
r 0.1828 1 2 cbr 1000 ------- 1 1.0 2.0 84 84
+ 0.183333 1 2 cbr 1000 ------- 1 1.0 2.0 100 100
- 0.183333 1 2 cbr 1000 ------- 1 1.0 2.0 100 100
r 0.183633 1 2 cbr 1000 ------- 1 1.0 2.0 85 85
+ 0.184167 1 2 cbr 1000 ------- 1 1.0 2.0 101 101
- 0.184167 1 2 cbr 1000 ------- 1 1.0 2.0 101 101
r 0.184467 1 2 cbr 1000 ------- 1 1.0 2.0 86 86
+ 0.185 1 2 cbr 1000 ------- 1 1.0 2.0 102 102
- 0.185 1 2 cbr 1000 ------- 1 1.0 2.0 102 102
r 0.1853 1 2 cbr 1000 ------- 1 1.0 2.0 87 87
+ 0.185833 1 2 cbr 1000 ------- 1 1.0 2.0 103 103
- 0.185833 1 2 cbr 1000 ------- 1 1.0 2.0 103 103
r 0.186133 1 2 cbr 1000 ------- 1 1.0 2.0 88 88
+ 0.186667 1 2 cbr 1000 ------- 1 1.0 2.0 104 104
- 0.186667 1 2 cbr 1000 ------- 1 1.0 2.0 104 104
r 0.186967 1 2 cbr 1000 ------- 1 1.0 2.0 89 89
+ 0.1875 1 2 cbr 1000 ------- 1 1.0 2.0 105 105
- 0.1875 1 2 cbr 1000 ------- 1 1.0 2.0 105 105
r 0.1878 1 2 cbr 1000 ------- 1 1.0 2.0 90 90
+ 0.188333 1 2 cbr 1000 ------- 1 1.0 2.0 106 106
- 0.188333 1 2 cbr 1000 ------- 1 1.0 2.0 106 106
r 0.188633 1 2 cbr 1000 ------- 1 1.0 2.0 91 91
+ 0.189167 1 2 cbr 1000 ------- 1 1.0 2.0 107 107
- 0.189167 1 2 cbr 1000 ------- 1 1.0 2.0 107 107
r 0.189467 1 2 cbr 1000 ------- 1 1.0 2.0 92 92
+ 0.19 1 2 cbr 1000 ------- 1 1.0 2.0 108 108
- 0.19 1 2 cbr 1000 ------- 1 1.0 2.0 108 108
r 0.1903 1 2 cbr 1000 ------- 1 1.0 2.0 93 93
+ 0.190833 1 2 cbr 1000 ------- 1 1.0 2.0 109 109
- 0.190833 1 2 cbr 1000 ------- 1 1.0 2.0 109 109
r 0.191133 1 2 cbr 1000 ------- 1 1.0 2.0 94 94
+ 0.191667 1 2 cbr 1000 ------- 1 1.0 2.0 110 110
- 0.191667 1 2 cbr 1000 ------- 1 1.0 2.0 110 110
r 0.191967 1 2 cbr 1000 ------- 1 1.0 2.0 95 95
+ 0.1925 1 2 cbr 1000 ------- 1 1.0 2.0 111 111
- 0.1925 1 2 cbr 1000 ------- 1 1.0 2.0 111 111
r 0.1928 1 2 cbr 1000 ------- 1 1.0 2.0 96 96
+ 0.193333 1 2 cbr 1000 ------- 1 1.0 2.0 112 112
- 0.193333 1 2 cbr 1000 ------- 1 1.0 2.0 112 112
r 0.193633 1 2 cbr 1000 ------- 1 1.0 2.0 97 97
+ 0.194167 1 2 cbr 1000 ------- 1 1.0 2.0 113 113
- 0.194167 1 2 cbr 1000 ------- 1 1.0 2.0 113 113
r 0.194467 1 2 cbr 1000 ------- 1 1.0 2.0 98 98
+ 0.195 1 2 cbr 1000 ------- 1 1.0 2.0 114 114
- 0.195 1 2 cbr 1000 ------- 1 1.0 2.0 114 114
r 0.1953 1 2 cbr 1000 ------- 1 1.0 2.0 99 99
+ 0.195833 1 2 cbr 1000 ------- 1 1.0 2.0 115 115
- 0.195833 1 2 cbr 1000 ------- 1 1.0 2.0 115 115
r 0.196133 1 2 cbr 1000 ------- 1 1.0 2.0 100 100
+ 0.196667 1 2 cbr 1000 ------- 1 1.0 2.0 116 116
- 0.196667 1 2 cbr 1000 ------- 1 1.0 2.0 116 116
r 0.196967 1 2 cbr 1000 ------- 1 1.0 2.0 101 101
+ 0.1975 1 2 cbr 1000 ------- 1 1.0 2.0 117 117
- 0.1975 1 2 cbr 1000 ------- 1 1.0 2.0 117 117
r 0.1978 1 2 cbr 1000 ------- 1 1.0 2.0 102 102
+ 0.198333 1 2 cbr 1000 ------- 1 1.0 2.0 118 118
- 0.198333 1 2 cbr 1000 ------- 1 1.0 2.0 118 118
r 0.198633 1 2 cbr 1000 ------- 1 1.0 2.0 103 103
+ 0.199167 1 2 cbr 1000 ------- 1 1.0 2.0 119 119
- 0.199167 1 2 cbr 1000 ------- 1 1.0 2.0 119 119
r 0.199467 1 2 cbr 1000 ------- 1 1.0 2.0 104 104
+ 0.2 1 2 cbr 1000 ------- 1 1.0 2.0 120 120
- 0.2 1 2 cbr 1000 ------- 1 1.0 2.0 120 120
r 0.2003 1 2 cbr 1000 ------- 1 1.0 2.0 105 105
+ 0.200833 1 2 cbr 1000 ------- 1 1.0 2.0 121 121
- 0.200833 1 2 cbr 1000 ------- 1 1.0 2.0 121 121
r 0.201133 1 2 cbr 1000 ------- 1 1.0 2.0 106 106
+ 0.201667 1 2 cbr 1000 ------- 1 1.0 2.0 122 122
- 0.201667 1 2 cbr 1000 ------- 1 1.0 2.0 122 122
r 0.201967 1 2 cbr 1000 ------- 1 1.0 2.0 107 107
+ 0.2025 1 2 cbr 1000 ------- 1 1.0 2.0 123 123
- 0.2025 1 2 cbr 1000 ------- 1 1.0 2.0 123 123
r 0.2028 1 2 cbr 1000 ------- 1 1.0 2.0 108 108
+ 0.203333 1 2 cbr 1000 ------- 1 1.0 2.0 124 124
- 0.203333 1 2 cbr 1000 ------- 1 1.0 2.0 124 124
r 0.203633 1 2 cbr 1000 ------- 1 1.0 2.0 109 109
+ 0.204167 1 2 cbr 1000 ------- 1 1.0 2.0 125 125
- 0.204167 1 2 cbr 1000 ------- 1 1.0 2.0 125 125
r 0.204467 1 2 cbr 1000 ------- 1 1.0 2.0 110 110
+ 0.205 1 2 cbr 1000 ------- 1 1.0 2.0 126 126
- 0.205 1 2 cbr 1000 ------- 1 1.0 2.0 126 126
r 0.2053 1 2 cbr 1000 ------- 1 1.0 2.0 111 111
+ 0.205833 1 2 cbr 1000 ------- 1 1.0 2.0 127 127
- 0.205833 1 2 cbr 1000 ------- 1 1.0 2.0 127 127
r 0.206133 1 2 cbr 1000 ------- 1 1.0 2.0 112 112
+ 0.206667 1 2 cbr 1000 ------- 1 1.0 2.0 128 128
- 0.206667 1 2 cbr 1000 ------- 1 1.0 2.0 128 128
r 0.206967 1 2 cbr 1000 ------- 1 1.0 2.0 113 113
+ 0.2075 1 2 cbr 1000 ------- 1 1.0 2.0 129 129
- 0.2075 1 2 cbr 1000 ------- 1 1.0 2.0 129 129
r 0.2078 1 2 cbr 1000 ------- 1 1.0 2.0 114 114
+ 0.208333 1 2 cbr 1000 ------- 1 1.0 2.0 130 130
- 0.208333 1 2 cbr 1000 ------- 1 1.0 2.0 130 130
r 0.208633 1 2 cbr 1000 ------- 1 1.0 2.0 115 115
+ 0.209167 1 2 cbr 1000 ------- 1 1.0 2.0 131 131
- 0.209167 1 2 cbr 1000 ------- 1 1.0 2.0 131 131
r 0.209467 1 2 cbr 1000 ------- 1 1.0 2.0 116 116
+ 0.21 1 2 cbr 1000 ------- 1 1.0 2.0 132 132
- 0.21 1 2 cbr 1000 ------- 1 1.0 2.0 132 132
r 0.2103 1 2 cbr 1000 ------- 1 1.0 2.0 117 117
+ 0.210833 1 2 cbr 1000 ------- 1 1.0 2.0 133 133
- 0.210833 1 2 cbr 1000 ------- 1 1.0 2.0 133 133
r 0.211133 1 2 cbr 1000 ------- 1 1.0 2.0 118 118
+ 0.211667 1 2 cbr 1000 ------- 1 1.0 2.0 134 134
- 0.211667 1 2 cbr 1000 ------- 1 1.0 2.0 134 134
r 0.211967 1 2 cbr 1000 ------- 1 1.0 2.0 119 119
+ 0.2125 1 2 cbr 1000 ------- 1 1.0 2.0 135 135
- 0.2125 1 2 cbr 1000 ------- 1 1.0 2.0 135 135
r 0.2128 1 2 cbr 1000 ------- 1 1.0 2.0 120 120
+ 0.213333 1 2 cbr 1000 ------- 1 1.0 2.0 136 136
- 0.213333 1 2 cbr 1000 ------- 1 1.0 2.0 136 136
r 0.213633 1 2 cbr 1000 ------- 1 1.0 2.0 121 121
+ 0.214167 1 2 cbr 1000 ------- 1 1.0 2.0 137 137
- 0.214167 1 2 cbr 1000 ------- 1 1.0 2.0 137 137
r 0.214467 1 2 cbr 1000 ------- 1 1.0 2.0 122 122
+ 0.215 1 2 cbr 1000 ------- 1 1.0 2.0 138 138
- 0.215 1 2 cbr 1000 ------- 1 1.0 2.0 138 138
r 0.2153 1 2 cbr 1000 ------- 1 1.0 2.0 123 123
+ 0.215833 1 2 cbr 1000 ------- 1 1.0 2.0 139 139
- 0.215833 1 2 cbr 1000 ------- 1 1.0 2.0 139 139
r 0.216133 1 2 cbr 1000 ------- 1 1.0 2.0 124 124
+ 0.216667 1 2 cbr 1000 ------- 1 1.0 2.0 140 140
- 0.216667 1 2 cbr 1000 ------- 1 1.0 2.0 140 140
r 0.216967 1 2 cbr 1000 ------- 1 1.0 2.0 125 125
+ 0.2175 1 2 cbr 1000 ------- 1 1.0 2.0 141 141
- 0.2175 1 2 cbr 1000 ------- 1 1.0 2.0 141 141
r 0.2178 1 2 cbr 1000 ------- 1 1.0 2.0 126 126
+ 0.218333 1 2 cbr 1000 ------- 1 1.0 2.0 142 142
- 0.218333 1 2 cbr 1000 ------- 1 1.0 2.0 142 142
r 0.218633 1 2 cbr 1000 ------- 1 1.0 2.0 127 127
+ 0.219167 1 2 cbr 1000 ------- 1 1.0 2.0 143 143
- 0.219167 1 2 cbr 1000 ------- 1 1.0 2.0 143 143
r 0.219467 1 2 cbr 1000 ------- 1 1.0 2.0 128 128
+ 0.22 1 2 cbr 1000 ------- 1 1.0 2.0 144 144
- 0.22 1 2 cbr 1000 ------- 1 1.0 2.0 144 144
r 0.2203 1 2 cbr 1000 ------- 1 1.0 2.0 129 129
+ 0.220833 1 2 cbr 1000 ------- 1 1.0 2.0 145 145
- 0.220833 1 2 cbr 1000 ------- 1 1.0 2.0 145 145
r 0.221133 1 2 cbr 1000 ------- 1 1.0 2.0 130 130
+ 0.221667 1 2 cbr 1000 ------- 1 1.0 2.0 146 146
- 0.221667 1 2 cbr 1000 ------- 1 1.0 2.0 146 146
r 0.221967 1 2 cbr 1000 ------- 1 1.0 2.0 131 131
+ 0.2225 1 2 cbr 1000 ------- 1 1.0 2.0 147 147
- 0.2225 1 2 cbr 1000 ------- 1 1.0 2.0 147 147
r 0.2228 1 2 cbr 1000 ------- 1 1.0 2.0 132 132
+ 0.223333 1 2 cbr 1000 ------- 1 1.0 2.0 148 148
- 0.223333 1 2 cbr 1000 ------- 1 1.0 2.0 148 148
r 0.223633 1 2 cbr 1000 ------- 1 1.0 2.0 133 133
+ 0.224167 1 2 cbr 1000 ------- 1 1.0 2.0 149 149
- 0.224167 1 2 cbr 1000 ------- 1 1.0 2.0 149 149
r 0.224467 1 2 cbr 1000 ------- 1 1.0 2.0 134 134
+ 0.225 1 2 cbr 1000 ------- 1 1.0 2.0 150 150
- 0.225 1 2 cbr 1000 ------- 1 1.0 2.0 150 150
r 0.2253 1 2 cbr 1000 ------- 1 1.0 2.0 135 135
+ 0.225833 1 2 cbr 1000 ------- 1 1.0 2.0 151 151
- 0.225833 1 2 cbr 1000 ------- 1 1.0 2.0 151 151
r 0.226133 1 2 cbr 1000 ------- 1 1.0 2.0 136 136
+ 0.226667 1 2 cbr 1000 ------- 1 1.0 2.0 152 152
- 0.226667 1 2 cbr 1000 ------- 1 1.0 2.0 152 152
r 0.226967 1 2 cbr 1000 ------- 1 1.0 2.0 137 137
+ 0.2275 1 2 cbr 1000 ------- 1 1.0 2.0 153 153
- 0.2275 1 2 cbr 1000 ------- 1 1.0 2.0 153 153
r 0.2278 1 2 cbr 1000 ------- 1 1.0 2.0 138 138
+ 0.228333 1 2 cbr 1000 ------- 1 1.0 2.0 154 154
- 0.228333 1 2 cbr 1000 ------- 1 1.0 2.0 154 154
r 0.228633 1 2 cbr 1000 ------- 1 1.0 2.0 139 139
+ 0.229167 1 2 cbr 1000 ------- 1 1.0 2.0 155 155
- 0.229167 1 2 cbr 1000 ------- 1 1.0 2.0 155 155
r 0.229467 1 2 cbr 1000 ------- 1 1.0 2.0 140 140
+ 0.23 1 2 cbr 1000 ------- 1 1.0 2.0 156 156
- 0.23 1 2 cbr 1000 ------- 1 1.0 2.0 156 156
r 0.2303 1 2 cbr 1000 ------- 1 1.0 2.0 141 141
+ 0.230833 1 2 cbr 1000 ------- 1 1.0 2.0 157 157
- 0.230833 1 2 cbr 1000 ------- 1 1.0 2.0 157 157
r 0.231133 1 2 cbr 1000 ------- 1 1.0 2.0 142 142
+ 0.231667 1 2 cbr 1000 ------- 1 1.0 2.0 158 158
- 0.231667 1 2 cbr 1000 ------- 1 1.0 2.0 158 158
r 0.231967 1 2 cbr 1000 ------- 1 1.0 2.0 143 143
+ 0.2325 1 2 cbr 1000 ------- 1 1.0 2.0 159 159
- 0.2325 1 2 cbr 1000 ------- 1 1.0 2.0 159 159
r 0.2328 1 2 cbr 1000 ------- 1 1.0 2.0 144 144
+ 0.233333 1 2 cbr 1000 ------- 1 1.0 2.0 160 160
- 0.233333 1 2 cbr 1000 ------- 1 1.0 2.0 160 160
r 0.233633 1 2 cbr 1000 ------- 1 1.0 2.0 145 145
+ 0.234167 1 2 cbr 1000 ------- 1 1.0 2.0 161 161
- 0.234167 1 2 cbr 1000 ------- 1 1.0 2.0 161 161
r 0.234467 1 2 cbr 1000 ------- 1 1.0 2.0 146 146
+ 0.235 1 2 cbr 1000 ------- 1 1.0 2.0 162 162
- 0.235 1 2 cbr 1000 ------- 1 1.0 2.0 162 162
r 0.2353 1 2 cbr 1000 ------- 1 1.0 2.0 147 147
+ 0.235833 1 2 cbr 1000 ------- 1 1.0 2.0 163 163
- 0.235833 1 2 cbr 1000 ------- 1 1.0 2.0 163 163
r 0.236133 1 2 cbr 1000 ------- 1 1.0 2.0 148 148
+ 0.236667 1 2 cbr 1000 ------- 1 1.0 2.0 164 164
- 0.236667 1 2 cbr 1000 ------- 1 1.0 2.0 164 164
r 0.236967 1 2 cbr 1000 ------- 1 1.0 2.0 149 149
+ 0.2375 1 2 cbr 1000 ------- 1 1.0 2.0 165 165
- 0.2375 1 2 cbr 1000 ------- 1 1.0 2.0 165 165
r 0.2378 1 2 cbr 1000 ------- 1 1.0 2.0 150 150
+ 0.238333 1 2 cbr 1000 ------- 1 1.0 2.0 166 166
- 0.238333 1 2 cbr 1000 ------- 1 1.0 2.0 166 166
r 0.238633 1 2 cbr 1000 ------- 1 1.0 2.0 151 151
+ 0.239167 1 2 cbr 1000 ------- 1 1.0 2.0 167 167
- 0.239167 1 2 cbr 1000 ------- 1 1.0 2.0 167 167
r 0.239467 1 2 cbr 1000 ------- 1 1.0 2.0 152 152
+ 0.24 1 2 cbr 1000 ------- 1 1.0 2.0 168 168
- 0.24 1 2 cbr 1000 ------- 1 1.0 2.0 168 168
r 0.2403 1 2 cbr 1000 ------- 1 1.0 2.0 153 153
+ 0.240833 1 2 cbr 1000 ------- 1 1.0 2.0 169 169
- 0.240833 1 2 cbr 1000 ------- 1 1.0 2.0 169 169
r 0.241133 1 2 cbr 1000 ------- 1 1.0 2.0 154 154
+ 0.241667 1 2 cbr 1000 ------- 1 1.0 2.0 170 170
- 0.241667 1 2 cbr 1000 ------- 1 1.0 2.0 170 170
r 0.241967 1 2 cbr 1000 ------- 1 1.0 2.0 155 155
+ 0.2425 1 2 cbr 1000 ------- 1 1.0 2.0 171 171
- 0.2425 1 2 cbr 1000 ------- 1 1.0 2.0 171 171
r 0.2428 1 2 cbr 1000 ------- 1 1.0 2.0 156 156
+ 0.243333 1 2 cbr 1000 ------- 1 1.0 2.0 172 172
- 0.243333 1 2 cbr 1000 ------- 1 1.0 2.0 172 172
r 0.243633 1 2 cbr 1000 ------- 1 1.0 2.0 157 157
+ 0.244167 1 2 cbr 1000 ------- 1 1.0 2.0 173 173
- 0.244167 1 2 cbr 1000 ------- 1 1.0 2.0 173 173
r 0.244467 1 2 cbr 1000 ------- 1 1.0 2.0 158 158
+ 0.245 1 2 cbr 1000 ------- 1 1.0 2.0 174 174
- 0.245 1 2 cbr 1000 ------- 1 1.0 2.0 174 174
r 0.2453 1 2 cbr 1000 ------- 1 1.0 2.0 159 159
+ 0.245833 1 2 cbr 1000 ------- 1 1.0 2.0 175 175
- 0.245833 1 2 cbr 1000 ------- 1 1.0 2.0 175 175
r 0.246133 1 2 cbr 1000 ------- 1 1.0 2.0 160 160
+ 0.246667 1 2 cbr 1000 ------- 1 1.0 2.0 176 176
- 0.246667 1 2 cbr 1000 ------- 1 1.0 2.0 176 176
r 0.246967 1 2 cbr 1000 ------- 1 1.0 2.0 161 161
+ 0.2475 1 2 cbr 1000 ------- 1 1.0 2.0 177 177
- 0.2475 1 2 cbr 1000 ------- 1 1.0 2.0 177 177
r 0.2478 1 2 cbr 1000 ------- 1 1.0 2.0 162 162
+ 0.248333 1 2 cbr 1000 ------- 1 1.0 2.0 178 178
- 0.248333 1 2 cbr 1000 ------- 1 1.0 2.0 178 178
r 0.248633 1 2 cbr 1000 ------- 1 1.0 2.0 163 163
+ 0.249167 1 2 cbr 1000 ------- 1 1.0 2.0 179 179
- 0.249167 1 2 cbr 1000 ------- 1 1.0 2.0 179 179
r 0.249467 1 2 cbr 1000 ------- 1 1.0 2.0 164 164
+ 0.25 1 2 cbr 1000 ------- 1 1.0 2.0 180 180
- 0.25 1 2 cbr 1000 ------- 1 1.0 2.0 180 180
r 0.2503 1 2 cbr 1000 ------- 1 1.0 2.0 165 165
+ 0.250833 1 2 cbr 1000 ------- 1 1.0 2.0 181 181
- 0.250833 1 2 cbr 1000 ------- 1 1.0 2.0 181 181
r 0.251133 1 2 cbr 1000 ------- 1 1.0 2.0 166 166
+ 0.251667 1 2 cbr 1000 ------- 1 1.0 2.0 182 182
- 0.251667 1 2 cbr 1000 ------- 1 1.0 2.0 182 182
r 0.251967 1 2 cbr 1000 ------- 1 1.0 2.0 167 167
+ 0.2525 1 2 cbr 1000 ------- 1 1.0 2.0 183 183
- 0.2525 1 2 cbr 1000 ------- 1 1.0 2.0 183 183
r 0.2528 1 2 cbr 1000 ------- 1 1.0 2.0 168 168
+ 0.253333 1 2 cbr 1000 ------- 1 1.0 2.0 184 184
- 0.253333 1 2 cbr 1000 ------- 1 1.0 2.0 184 184
r 0.253633 1 2 cbr 1000 ------- 1 1.0 2.0 169 169
+ 0.254167 1 2 cbr 1000 ------- 1 1.0 2.0 185 185
- 0.254167 1 2 cbr 1000 ------- 1 1.0 2.0 185 185
r 0.254467 1 2 cbr 1000 ------- 1 1.0 2.0 170 170
+ 0.255 1 2 cbr 1000 ------- 1 1.0 2.0 186 186
- 0.255 1 2 cbr 1000 ------- 1 1.0 2.0 186 186
r 0.2553 1 2 cbr 1000 ------- 1 1.0 2.0 171 171
+ 0.255833 1 2 cbr 1000 ------- 1 1.0 2.0 187 187
- 0.255833 1 2 cbr 1000 ------- 1 1.0 2.0 187 187
r 0.256133 1 2 cbr 1000 ------- 1 1.0 2.0 172 172
+ 0.256667 1 2 cbr 1000 ------- 1 1.0 2.0 188 188
- 0.256667 1 2 cbr 1000 ------- 1 1.0 2.0 188 188
r 0.256967 1 2 cbr 1000 ------- 1 1.0 2.0 173 173
+ 0.2575 1 2 cbr 1000 ------- 1 1.0 2.0 189 189
- 0.2575 1 2 cbr 1000 ------- 1 1.0 2.0 189 189
r 0.2578 1 2 cbr 1000 ------- 1 1.0 2.0 174 174
+ 0.258333 1 2 cbr 1000 ------- 1 1.0 2.0 190 190
- 0.258333 1 2 cbr 1000 ------- 1 1.0 2.0 190 190
r 0.258633 1 2 cbr 1000 ------- 1 1.0 2.0 175 175
+ 0.259167 1 2 cbr 1000 ------- 1 1.0 2.0 191 191
- 0.259167 1 2 cbr 1000 ------- 1 1.0 2.0 191 191
r 0.259467 1 2 cbr 1000 ------- 1 1.0 2.0 176 176
+ 0.26 1 2 cbr 1000 ------- 1 1.0 2.0 192 192
- 0.26 1 2 cbr 1000 ------- 1 1.0 2.0 192 192
r 0.2603 1 2 cbr 1000 ------- 1 1.0 2.0 177 177
+ 0.260833 1 2 cbr 1000 ------- 1 1.0 2.0 193 193
- 0.260833 1 2 cbr 1000 ------- 1 1.0 2.0 193 193
r 0.261133 1 2 cbr 1000 ------- 1 1.0 2.0 178 178
+ 0.261667 1 2 cbr 1000 ------- 1 1.0 2.0 194 194
- 0.261667 1 2 cbr 1000 ------- 1 1.0 2.0 194 194
r 0.261967 1 2 cbr 1000 ------- 1 1.0 2.0 179 179
+ 0.2625 1 2 cbr 1000 ------- 1 1.0 2.0 195 195
- 0.2625 1 2 cbr 1000 ------- 1 1.0 2.0 195 195
r 0.2628 1 2 cbr 1000 ------- 1 1.0 2.0 180 180
+ 0.263333 1 2 cbr 1000 ------- 1 1.0 2.0 196 196
- 0.263333 1 2 cbr 1000 ------- 1 1.0 2.0 196 196
r 0.263633 1 2 cbr 1000 ------- 1 1.0 2.0 181 181
+ 0.264167 1 2 cbr 1000 ------- 1 1.0 2.0 197 197
- 0.264167 1 2 cbr 1000 ------- 1 1.0 2.0 197 197
r 0.264467 1 2 cbr 1000 ------- 1 1.0 2.0 182 182
+ 0.265 1 2 cbr 1000 ------- 1 1.0 2.0 198 198
- 0.265 1 2 cbr 1000 ------- 1 1.0 2.0 198 198
r 0.2653 1 2 cbr 1000 ------- 1 1.0 2.0 183 183
+ 0.265833 1 2 cbr 1000 ------- 1 1.0 2.0 199 199
- 0.265833 1 2 cbr 1000 ------- 1 1.0 2.0 199 199
r 0.266133 1 2 cbr 1000 ------- 1 1.0 2.0 184 184
+ 0.266667 1 2 cbr 1000 ------- 1 1.0 2.0 200 200
- 0.266667 1 2 cbr 1000 ------- 1 1.0 2.0 200 200
r 0.266967 1 2 cbr 1000 ------- 1 1.0 2.0 185 185
+ 0.2675 1 2 cbr 1000 ------- 1 1.0 2.0 201 201
- 0.2675 1 2 cbr 1000 ------- 1 1.0 2.0 201 201
r 0.2678 1 2 cbr 1000 ------- 1 1.0 2.0 186 186
+ 0.268333 1 2 cbr 1000 ------- 1 1.0 2.0 202 202
- 0.268333 1 2 cbr 1000 ------- 1 1.0 2.0 202 202
r 0.268633 1 2 cbr 1000 ------- 1 1.0 2.0 187 187
+ 0.269167 1 2 cbr 1000 ------- 1 1.0 2.0 203 203
- 0.269167 1 2 cbr 1000 ------- 1 1.0 2.0 203 203
r 0.269467 1 2 cbr 1000 ------- 1 1.0 2.0 188 188
+ 0.27 1 2 cbr 1000 ------- 1 1.0 2.0 204 204
- 0.27 1 2 cbr 1000 ------- 1 1.0 2.0 204 204
r 0.2703 1 2 cbr 1000 ------- 1 1.0 2.0 189 189
+ 0.270833 1 2 cbr 1000 ------- 1 1.0 2.0 205 205
- 0.270833 1 2 cbr 1000 ------- 1 1.0 2.0 205 205
r 0.271133 1 2 cbr 1000 ------- 1 1.0 2.0 190 190
+ 0.271667 1 2 cbr 1000 ------- 1 1.0 2.0 206 206
- 0.271667 1 2 cbr 1000 ------- 1 1.0 2.0 206 206
r 0.271967 1 2 cbr 1000 ------- 1 1.0 2.0 191 191
+ 0.2725 1 2 cbr 1000 ------- 1 1.0 2.0 207 207
- 0.2725 1 2 cbr 1000 ------- 1 1.0 2.0 207 207
r 0.2728 1 2 cbr 1000 ------- 1 1.0 2.0 192 192
+ 0.273333 1 2 cbr 1000 ------- 1 1.0 2.0 208 208
- 0.273333 1 2 cbr 1000 ------- 1 1.0 2.0 208 208
r 0.273633 1 2 cbr 1000 ------- 1 1.0 2.0 193 193
+ 0.274167 1 2 cbr 1000 ------- 1 1.0 2.0 209 209
- 0.274167 1 2 cbr 1000 ------- 1 1.0 2.0 209 209
r 0.274467 1 2 cbr 1000 ------- 1 1.0 2.0 194 194
+ 0.275 1 2 cbr 1000 ------- 1 1.0 2.0 210 210
- 0.275 1 2 cbr 1000 ------- 1 1.0 2.0 210 210
r 0.2753 1 2 cbr 1000 ------- 1 1.0 2.0 195 195
+ 0.275833 1 2 cbr 1000 ------- 1 1.0 2.0 211 211
- 0.275833 1 2 cbr 1000 ------- 1 1.0 2.0 211 211
r 0.276133 1 2 cbr 1000 ------- 1 1.0 2.0 196 196
+ 0.276667 1 2 cbr 1000 ------- 1 1.0 2.0 212 212
- 0.276667 1 2 cbr 1000 ------- 1 1.0 2.0 212 212