+ 0.1 1 2 cbr 1000 ------- 1 1.0 2.0 0 0
- 0.1 1 2 cbr 1000 ------- 1 1.0 2.0 0 0
+ 0.100889 1 2 cbr 1000 ------- 1 1.0 2.0 1 1
- 0.100889 1 2 cbr 1000 ------- 1 1.0 2.0 1 1
+ 0.101778 1 2 cbr 1000 ------- 1 1.0 2.0 2 2
- 0.101778 1 2 cbr 1000 ------- 1 1.0 2.0 2 2
+ 0.102667 1 2 cbr 1000 ------- 1 1.0 2.0 3 3
- 0.102667 1 2 cbr 1000 ------- 1 1.0 2.0 3 3
+ 0.103556 1 2 cbr 1000 ------- 1 1.0 2.0 4 4
- 0.103556 1 2 cbr 1000 ------- 1 1.0 2.0 4 4
+ 0.104444 1 2 cbr 1000 ------- 1 1.0 2.0 5 5
- 0.104444 1 2 cbr 1000 ------- 1 1.0 2.0 5 5
+ 0.105333 1 2 cbr 1000 ------- 1 1.0 2.0 6 6
- 0.105333 1 2 cbr 1000 ------- 1 1.0 2.0 6 6
+ 0.106222 1 2 cbr 1000 ------- 1 1.0 2.0 7 7
- 0.106222 1 2 cbr 1000 ------- 1 1.0 2.0 7 7
+ 0.107111 1 2 cbr 1000 ------- 1 1.0 2.0 8 8
- 0.107111 1 2 cbr 1000 ------- 1 1.0 2.0 8 8
+ 0.108 1 2 cbr 1000 ------- 1 1.0 2.0 9 9
- 0.108 1 2 cbr 1000 ------- 1 1.0 2.0 9 9
+ 0.108889 1 2 cbr 1000 ------- 1 1.0 2.0 10 10
- 0.108889 1 2 cbr 1000 ------- 1 1.0 2.0 10 10
+ 0.109778 1 2 cbr 1000 ------- 1 1.0 2.0 11 11
- 0.109778 1 2 cbr 1000 ------- 1 1.0 2.0 11 11
+ 0.110667 1 2 cbr 1000 ------- 1 1.0 2.0 12 12
- 0.110667 1 2 cbr 1000 ------- 1 1.0 2.0 12 12
+ 0.111556 1 2 cbr 1000 ------- 1 1.0 2.0 13 13
- 0.111556 1 2 cbr 1000 ------- 1 1.0 2.0 13 13
+ 0.112444 1 2 cbr 1000 ------- 1 1.0 2.0 14 14
- 0.112444 1 2 cbr 1000 ------- 1 1.0 2.0 14 14
r 0.1128 1 2 cbr 1000 ------- 1 1.0 2.0 0 0
+ 0.113333 1 2 cbr 1000 ------- 1 1.0 2.0 15 15
- 0.113333 1 2 cbr 1000 ------- 1 1.0 2.0 15 15
r 0.113689 1 2 cbr 1000 ------- 1 1.0 2.0 1 1
+ 0.114222 1 2 cbr 1000 ------- 1 1.0 2.0 16 16
- 0.114222 1 2 cbr 1000 ------- 1 1.0 2.0 16 16
r 0.114578 1 2 cbr 1000 ------- 1 1.0 2.0 2 2
+ 0.115111 1 2 cbr 1000 ------- 1 1.0 2.0 17 17
- 0.115111 1 2 cbr 1000 ------- 1 1.0 2.0 17 17
r 0.115467 1 2 cbr 1000 ------- 1 1.0 2.0 3 3
+ 0.116 1 2 cbr 1000 ------- 1 1.0 2.0 18 18
- 0.116 1 2 cbr 1000 ------- 1 1.0 2.0 18 18
r 0.116356 1 2 cbr 1000 ------- 1 1.0 2.0 4 4
+ 0.116889 1 2 cbr 1000 ------- 1 1.0 2.0 19 19
- 0.116889 1 2 cbr 1000 ------- 1 1.0 2.0 19 19
r 0.117244 1 2 cbr 1000 ------- 1 1.0 2.0 5 5
+ 0.117778 1 2 cbr 1000 ------- 1 1.0 2.0 20 20
- 0.117778 1 2 cbr 1000 ------- 1 1.0 2.0 20 20
r 0.118133 1 2 cbr 1000 ------- 1 1.0 2.0 6 6
+ 0.118667 1 2 cbr 1000 ------- 1 1.0 2.0 21 21
- 0.118667 1 2 cbr 1000 ------- 1 1.0 2.0 21 21
r 0.119022 1 2 cbr 1000 ------- 1 1.0 2.0 7 7
+ 0.119556 1 2 cbr 1000 ------- 1 1.0 2.0 22 22
- 0.119556 1 2 cbr 1000 ------- 1 1.0 2.0 22 22
r 0.119911 1 2 cbr 1000 ------- 1 1.0 2.0 8 8
+ 0.120444 1 2 cbr 1000 ------- 1 1.0 2.0 23 23
- 0.120444 1 2 cbr 1000 ------- 1 1.0 2.0 23 23
r 0.1208 1 2 cbr 1000 ------- 1 1.0 2.0 9 9
+ 0.121333 1 2 cbr 1000 ------- 1 1.0 2.0 24 24
- 0.121333 1 2 cbr 1000 ------- 1 1.0 2.0 24 24
r 0.121689 1 2 cbr 1000 ------- 1 1.0 2.0 10 10
+ 0.122222 1 2 cbr 1000 ------- 1 1.0 2.0 25 25
- 0.122222 1 2 cbr 1000 ------- 1 1.0 2.0 25 25
r 0.122578 1 2 cbr 1000 ------- 1 1.0 2.0 11 11
+ 0.123111 1 2 cbr 1000 ------- 1 1.0 2.0 26 26
- 0.123111 1 2 cbr 1000 ------- 1 1.0 2.0 26 26
r 0.123467 1 2 cbr 1000 ------- 1 1.0 2.0 12 12
+ 0.124 1 2 cbr 1000 ------- 1 1.0 2.0 27 27
- 0.124 1 2 cbr 1000 ------- 1 1.0 2.0 27 27
r 0.124356 1 2 cbr 1000 ------- 1 1.0 2.0 13 13
+ 0.124889 1 2 cbr 1000 ------- 1 1.0 2.0 28 28
- 0.124889 1 2 cbr 1000 ------- 1 1.0 2.0 28 28
r 0.125244 1 2 cbr 1000 ------- 1 1.0 2.0 14 14
+ 0.125778 1 2 cbr 1000 ------- 1 1.0 2.0 29 29
- 0.125778 1 2 cbr 1000 ------- 1 1.0 2.0 29 29
r 0.126133 1 2 cbr 1000 ------- 1 1.0 2.0 15 15
+ 0.126667 1 2 cbr 1000 ------- 1 1.0 2.0 30 30
- 0.126667 1 2 cbr 1000 ------- 1 1.0 2.0 30 30
r 0.127022 1 2 cbr 1000 ------- 1 1.0 2.0 16 16
+ 0.127556 1 2 cbr 1000 ------- 1 1.0 2.0 31 31
- 0.127556 1 2 cbr 1000 ------- 1 1.0 2.0 31 31
r 0.127911 1 2 cbr 1000 ------- 1 1.0 2.0 17 17
+ 0.128444 1 2 cbr 1000 ------- 1 1.0 2.0 32 32
- 0.128444 1 2 cbr 1000 ------- 1 1.0 2.0 32 32
r 0.1288 1 2 cbr 1000 ------- 1 1.0 2.0 18 18
+ 0.129333 1 2 cbr 1000 ------- 1 1.0 2.0 33 33
- 0.129333 1 2 cbr 1000 ------- 1 1.0 2.0 33 33
r 0.129689 1 2 cbr 1000 ------- 1 1.0 2.0 19 19
+ 0.130222 1 2 cbr 1000 ------- 1 1.0 2.0 34 34
- 0.130222 1 2 cbr 1000 ------- 1 1.0 2.0 34 34
r 0.130578 1 2 cbr 1000 ------- 1 1.0 2.0 20 20
+ 0.131111 1 2 cbr 1000 ------- 1 1.0 2.0 35 35
- 0.131111 1 2 cbr 1000 ------- 1 1.0 2.0 35 35
r 0.131467 1 2 cbr 1000 ------- 1 1.0 2.0 21 21
+ 0.132 1 2 cbr 1000 ------- 1 1.0 2.0 36 36
- 0.132 1 2 cbr 1000 ------- 1 1.0 2.0 36 36
r 0.132356 1 2 cbr 1000 ------- 1 1.0 2.0 22 22
+ 0.132889 1 2 cbr 1000 ------- 1 1.0 2.0 37 37
- 0.132889 1 2 cbr 1000 ------- 1 1.0 2.0 37 37
r 0.133244 1 2 cbr 1000 ------- 1 1.0 2.0 23 23
+ 0.133778 1 2 cbr 1000 ------- 1 1.0 2.0 38 38
- 0.133778 1 2 cbr 1000 ------- 1 1.0 2.0 38 38
r 0.134133 1 2 cbr 1000 ------- 1 1.0 2.0 24 24
+ 0.134667 1 2 cbr 1000 ------- 1 1.0 2.0 39 39
- 0.134667 1 2 cbr 1000 ------- 1 1.0 2.0 39 39
r 0.135022 1 2 cbr 1000 ------- 1 1.0 2.0 25 25
+ 0.135556 1 2 cbr 1000 ------- 1 1.0 2.0 40 40
- 0.135556 1 2 cbr 1000 ------- 1 1.0 2.0 40 40
r 0.135911 1 2 cbr 1000 ------- 1 1.0 2.0 26 26
+ 0.136444 1 2 cbr 1000 ------- 1 1.0 2.0 41 41
- 0.136444 1 2 cbr 1000 ------- 1 1.0 2.0 41 41
r 0.1368 1 2 cbr 1000 ------- 1 1.0 2.0 27 27
+ 0.137333 1 2 cbr 1000 ------- 1 1.0 2.0 42 42
- 0.137333 1 2 cbr 1000 ------- 1 1.0 2.0 42 42
r 0.137689 1 2 cbr 1000 ------- 1 1.0 2.0 28 28
+ 0.138222 1 2 cbr 1000 ------- 1 1.0 2.0 43 43
- 0.138222 1 2 cbr 1000 ------- 1 1.0 2.0 43 43
r 0.138578 1 2 cbr 1000 ------- 1 1.0 2.0 29 29
+ 0.139111 1 2 cbr 1000 ------- 1 1.0 2.0 44 44
- 0.139111 1 2 cbr 1000 ------- 1 1.0 2.0 44 44
r 0.139467 1 2 cbr 1000 ------- 1 1.0 2.0 30 30
+ 0.14 1 2 cbr 1000 ------- 1 1.0 2.0 45 45
- 0.14 1 2 cbr 1000 ------- 1 1.0 2.0 45 45
r 0.140356 1 2 cbr 1000 ------- 1 1.0 2.0 31 31
+ 0.140889 1 2 cbr 1000 ------- 1 1.0 2.0 46 46
- 0.140889 1 2 cbr 1000 ------- 1 1.0 2.0 46 46
r 0.141244 1 2 cbr 1000 ------- 1 1.0 2.0 32 32
+ 0.141778 1 2 cbr 1000 ------- 1 1.0 2.0 47 47
- 0.141778 1 2 cbr 1000 ------- 1 1.0 2.0 47 47
r 0.142133 1 2 cbr 1000 ------- 1 1.0 2.0 33 33
+ 0.142667 1 2 cbr 1000 ------- 1 1.0 2.0 48 48
- 0.142667 1 2 cbr 1000 ------- 1 1.0 2.0 48 48
r 0.143022 1 2 cbr 1000 ------- 1 1.0 2.0 34 34
+ 0.143556 1 2 cbr 1000 ------- 1 1.0 2.0 49 49
- 0.143556 1 2 cbr 1000 ------- 1 1.0 2.0 49 49
r 0.143911 1 2 cbr 1000 ------- 1 1.0 2.0 35 35
+ 0.144444 1 2 cbr 1000 ------- 1 1.0 2.0 50 50
- 0.144444 1 2 cbr 1000 ------- 1 1.0 2.0 50 50
r 0.1448 1 2 cbr 1000 ------- 1 1.0 2.0 36 36
+ 0.145333 1 2 cbr 1000 ------- 1 1.0 2.0 51 51
- 0.145333 1 2 cbr 1000 ------- 1 1.0 2.0 51 51
r 0.145689 1 2 cbr 1000 ------- 1 1.0 2.0 37 37
+ 0.146222 1 2 cbr 1000 ------- 1 1.0 2.0 52 52
- 0.146222 1 2 cbr 1000 ------- 1 1.0 2.0 52 52
r 0.146578 1 2 cbr 1000 ------- 1 1.0 2.0 38 38
+ 0.147111 1 2 cbr 1000 ------- 1 1.0 2.0 53 53
- 0.147111 1 2 cbr 1000 ------- 1 1.0 2.0 53 53
r 0.147467 1 2 cbr 1000 ------- 1 1.0 2.0 39 39
+ 0.148 1 2 cbr 1000 ------- 1 1.0 2.0 54 54
- 0.148 1 2 cbr 1000 ------- 1 1.0 2.0 54 54
r 0.148356 1 2 cbr 1000 ------- 1 1.0 2.0 40 40
+ 0.148889 1 2 cbr 1000 ------- 1 1.0 2.0 55 55
- 0.148889 1 2 cbr 1000 ------- 1 1.0 2.0 55 55
r 0.149244 1 2 cbr 1000 ------- 1 1.0 2.0 41 41
+ 0.149778 1 2 cbr 1000 ------- 1 1.0 2.0 56 56
- 0.149778 1 2 cbr 1000 ------- 1 1.0 2.0 56 56
r 0.150133 1 2 cbr 1000 ------- 1 1.0 2.0 42 42
+ 0.150667 1 2 cbr 1000 ------- 1 1.0 2.0 57 57
- 0.150667 1 2 cbr 1000 ------- 1 1.0 2.0 57 57
r 0.151022 1 2 cbr 1000 ------- 1 1.0 2.0 43 43
+ 0.151556 1 2 cbr 1000 ------- 1 1.0 2.0 58 58
- 0.151556 1 2 cbr 1000 ------- 1 1.0 2.0 58 58
r 0.151911 1 2 cbr 1000 ------- 1 1.0 2.0 44 44
+ 0.152444 1 2 cbr 1000 ------- 1 1.0 2.0 59 59
- 0.152444 1 2 cbr 1000 ------- 1 1.0 2.0 59 59
r 0.1528 1 2 cbr 1000 ------- 1 1.0 2.0 45 45
+ 0.153333 1 2 cbr 1000 ------- 1 1.0 2.0 60 60
- 0.153333 1 2 cbr 1000 ------- 1 1.0 2.0 60 60
r 0.153689 1 2 cbr 1000 ------- 1 1.0 2.0 46 46
+ 0.154222 1 2 cbr 1000 ------- 1 1.0 2.0 61 61
- 0.154222 1 2 cbr 1000 ------- 1 1.0 2.0 61 61
r 0.154578 1 2 cbr 1000 ------- 1 1.0 2.0 47 47
+ 0.155111 1 2 cbr 1000 ------- 1 1.0 2.0 62 62
- 0.155111 1 2 cbr 1000 ------- 1 1.0 2.0 62 62
r 0.155467 1 2 cbr 1000 ------- 1 1.0 2.0 48 48
+ 0.156 1 2 cbr 1000 ------- 1 1.0 2.0 63 63
- 0.156 1 2 cbr 1000 ------- 1 1.0 2.0 63 63
r 0.156356 1 2 cbr 1000 ------- 1 1.0 2.0 49 49
+ 0.156889 1 2 cbr 1000 ------- 1 1.0 2.0 64 64
- 0.156889 1 2 cbr 1000 ------- 1 1.0 2.0 64 64
r 0.157244 1 2 cbr 1000 ------- 1 1.0 2.0 50 50
+ 0.157778 1 2 cbr 1000 ------- 1 1.0 2.0 65 65
- 0.157778 1 2 cbr 1000 ------- 1 1.0 2.0 65 65
r 0.158133 1 2 cbr 1000 ------- 1 1.0 2.0 51 51
+ 0.158667 1 2 cbr 1000 ------- 1 1.0 2.0 66 66
- 0.158667 1 2 cbr 1000 ------- 1 1.0 2.0 66 66
r 0.159022 1 2 cbr 1000 ------- 1 1.0 2.0 52 52
+ 0.159556 1 2 cbr 1000 ------- 1 1.0 2.0 67 67
- 0.159556 1 2 cbr 1000 ------- 1 1.0 2.0 67 67
r 0.159911 1 2 cbr 1000 ------- 1 1.0 2.0 53 53
+ 0.160444 1 2 cbr 1000 ------- 1 1.0 2.0 68 68
- 0.160444 1 2 cbr 1000 ------- 1 1.0 2.0 68 68
r 0.1608 1 2 cbr 1000 ------- 1 1.0 2.0 54 54
+ 0.161333 1 2 cbr 1000 ------- 1 1.0 2.0 69 69
- 0.161333 1 2 cbr 1000 ------- 1 1.0 2.0 69 69
r 0.161689 1 2 cbr 1000 ------- 1 1.0 2.0 55 55
+ 0.162222 1 2 cbr 1000 ------- 1 1.0 2.0 70 70
- 0.162222 1 2 cbr 1000 ------- 1 1.0 2.0 70 70
r 0.162578 1 2 cbr 1000 ------- 1 1.0 2.0 56 56
+ 0.163111 1 2 cbr 1000 ------- 1 1.0 2.0 71 71
- 0.163111 1 2 cbr 1000 ------- 1 1.0 2.0 71 71
r 0.163467 1 2 cbr 1000 ------- 1 1.0 2.0 57 57
+ 0.164 1 2 cbr 1000 ------- 1 1.0 2.0 72 72
- 0.164 1 2 cbr 1000 ------- 1 1.0 2.0 72 72
r 0.164356 1 2 cbr 1000 ------- 1 1.0 2.0 58 58
+ 0.164889 1 2 cbr 1000 ------- 1 1.0 2.0 73 73
- 0.164889 1 2 cbr 1000 ------- 1 1.0 2.0 73 73
r 0.165244 1 2 cbr 1000 ------- 1 1.0 2.0 59 59
+ 0.165778 1 2 cbr 1000 ------- 1 1.0 2.0 74 74
- 0.165778 1 2 cbr 1000 ------- 1 1.0 2.0 74 74
r 0.166133 1 2 cbr 1000 ------- 1 1.0 2.0 60 60
+ 0.166667 1 2 cbr 1000 ------- 1 1.0 2.0 75 75
- 0.166667 1 2 cbr 1000 ------- 1 1.0 2.0 75 75
r 0.167022 1 2 cbr 1000 ------- 1 1.0 2.0 61 61
+ 0.167556 1 2 cbr 1000 ------- 1 1.0 2.0 76 76
- 0.167556 1 2 cbr 1000 ------- 1 1.0 2.0 76 76
r 0.167911 1 2 cbr 1000 ------- 1 1.0 2.0 62 62
+ 0.168444 1 2 cbr 1000 ------- 1 1.0 2.0 77 77
- 0.168444 1 2 cbr 1000 ------- 1 1.0 2.0 77 77
r 0.1688 1 2 cbr 1000 ------- 1 1.0 2.0 63 63
+ 0.169333 1 2 cbr 1000 ------- 1 1.0 2.0 78 78
- 0.169333 1 2 cbr 1000 ------- 1 1.0 2.0 78 78
r 0.169689 1 2 cbr 1000 ------- 1 1.0 2.0 64 64
+ 0.170222 1 2 cbr 1000 ------- 1 1.0 2.0 79 79
- 0.170222 1 2 cbr 1000 ------- 1 1.0 2.0 79 79
r 0.170578 1 2 cbr 1000 ------- 1 1.0 2.0 65 65
+ 0.171111 1 2 cbr 1000 ------- 1 1.0 2.0 80 80
- 0.171111 1 2 cbr 1000 ------- 1 1.0 2.0 80 80
r 0.171467 1 2 cbr 1000 ------- 1 1.0 2.0 66 66
+ 0.172 1 2 cbr 1000 ------- 1 1.0 2.0 81 81
- 0.172 1 2 cbr 1000 ------- 1 1.0 2.0 81 81
r 0.172356 1 2 cbr 1000 ------- 1 1.0 2.0 67 67
+ 0.172889 1 2 cbr 1000 ------- 1 1.0 2.0 82 82
- 0.172889 1 2 cbr 1000 ------- 1 1.0 2.0 82 82
r 0.173244 1 2 cbr 1000 ------- 1 1.0 2.0 68 68
+ 0.173778 1 2 cbr 1000 ------- 1 1.0 2.0 83 83
- 0.173778 1 2 cbr 1000 ------- 1 1.0 2.0 83 83
r 0.174133 1 2 cbr 1000 ------- 1 1.0 2.0 69 69
+ 0.174667 1 2 cbr 1000 ------- 1 1.0 2.0 84 84
- 0.174667 1 2 cbr 1000 ------- 1 1.0 2.0 84 84
r 0.175022 1 2 cbr 1000 ------- 1 1.0 2.0 70 70
+ 0.175556 1 2 cbr 1000 ------- 1 1.0 2.0 85 85
- 0.175556 1 2 cbr 1000 ------- 1 1.0 2.0 85 85
r 0.175911 1 2 cbr 1000 ------- 1 1.0 2.0 71 71
+ 0.176444 1 2 cbr 1000 ------- 1 1.0 2.0 86 86
- 0.176444 1 2 cbr 1000 ------- 1 1.0 2.0 86 86
r 0.1768 1 2 cbr 1000 ------- 1 1.0 2.0 72 72
+ 0.177333 1 2 cbr 1000 ------- 1 1.0 2.0 87 87
- 0.177333 1 2 cbr 1000 ------- 1 1.0 2.0 87 87
r 0.177689 1 2 cbr 1000 ------- 1 1.0 2.0 73 73
+ 0.178222 1 2 cbr 1000 ------- 1 1.0 2.0 88 88
- 0.178222 1 2 cbr 1000 ------- 1 1.0 2.0 88 88
r 0.178578 1 2 cbr 1000 ------- 1 1.0 2.0 74 74
+ 0.179111 1 2 cbr 1000 ------- 1 1.0 2.0 89 89
- 0.179111 1 2 cbr 1000 ------- 1 1.0 2.0 89 89
r 0.179467 1 2 cbr 1000 ------- 1 1.0 2.0 75 75
+ 0.18 1 2 cbr 1000 ------- 1 1.0 2.0 90 90
- 0.18 1 2 cbr 1000 ------- 1 1.0 2.0 90 90
r 0.180356 1 2 cbr 1000 ------- 1 1.0 2.0 76 76
+ 0.180889 1 2 cbr 1000 ------- 1 1.0 2.0 91 91
- 0.180889 1 2 cbr 1000 ------- 1 1.0 2.0 91 91
r 0.181244 1 2 cbr 1000 ------- 1 1.0 2.0 77 77
+ 0.181778 1 2 cbr 1000 ------- 1 1.0 2.0 92 92
- 0.181778 1 2 cbr 1000 ------- 1 1.0 2.0 92 92
r 0.182133 1 2 cbr 1000 ------- 1 1.0 2.0 78 78
+ 0.182667 1 2 cbr 1000 ------- 1 1.0 2.0 93 93
- 0.182667 1 2 cbr 1000 ------- 1 1.0 2.0 93 93
r 0.183022 1 2 cbr 1000 ------- 1 1.0 2.0 79 79
+ 0.183556 1 2 cbr 1000 ------- 1 1.0 2.0 94 94
- 0.183556 1 2 cbr 1000 ------- 1 1.0 2.0 94 94
r 0.183911 1 2 cbr 1000 ------- 1 1.0 2.0 80 80
+ 0.184444 1 2 cbr 1000 ------- 1 1.0 2.0 95 95
- 0.184444 1 2 cbr 1000 ------- 1 1.0 2.0 95 95
r 0.1848 1 2 cbr 1000 ------- 1 1.0 2.0 81 81
+ 0.185333 1 2 cbr 1000 ------- 1 1.0 2.0 96 96
- 0.185333 1 2 cbr 1000 ------- 1 1.0 2.0 96 96
r 0.185689 1 2 cbr 1000 ------- 1 1.0 2.0 82 82
+ 0.186222 1 2 cbr 1000 ------- 1 1.0 2.0 97 97
- 0.186222 1 2 cbr 1000 ------- 1 1.0 2.0 97 97
r 0.186578 1 2 cbr 1000 ------- 1 1.0 2.0 83 83
+ 0.187111 1 2 cbr 1000 ------- 1 1.0 2.0 98 98
- 0.187111 1 2 cbr 1000 ------- 1 1.0 2.0 98 98
r 0.187467 1 2 cbr 1000 ------- 1 1.0 2.0 84 84
+ 0.188 1 2 cbr 1000 ------- 1 1.0 2.0 99 99
- 0.188 1 2 cbr 1000 ------- 1 1.0 2.0 99 99
r 0.188356 1 2 cbr 1000 ------- 1 1.0 2.0 85 85
+ 0.188889 1 2 cbr 1000 ------- 1 1.0 2.0 100 100
- 0.188889 1 2 cbr 1000 ------- 1 1.0 2.0 100 100
r 0.189244 1 2 cbr 1000 ------- 1 1.0 2.0 86 86
+ 0.189778 1 2 cbr 1000 ------- 1 1.0 2.0 101 101
- 0.189778 1 2 cbr 1000 ------- 1 1.0 2.0 101 101
r 0.190133 1 2 cbr 1000 ------- 1 1.0 2.0 87 87
+ 0.190667 1 2 cbr 1000 ------- 1 1.0 2.0 102 102
- 0.190667 1 2 cbr 1000 ------- 1 1.0 2.0 102 102
r 0.191022 1 2 cbr 1000 ------- 1 1.0 2.0 88 88
+ 0.191556 1 2 cbr 1000 ------- 1 1.0 2.0 103 103
- 0.191556 1 2 cbr 1000 ------- 1 1.0 2.0 103 103
r 0.191911 1 2 cbr 1000 ------- 1 1.0 2.0 89 89
+ 0.192444 1 2 cbr 1000 ------- 1 1.0 2.0 104 104
- 0.192444 1 2 cbr 1000 ------- 1 1.0 2.0 104 104
r 0.1928 1 2 cbr 1000 ------- 1 1.0 2.0 90 90
+ 0.193333 1 2 cbr 1000 ------- 1 1.0 2.0 105 105
- 0.193333 1 2 cbr 1000 ------- 1 1.0 2.0 105 105
r 0.193689 1 2 cbr 1000 ------- 1 1.0 2.0 91 91
+ 0.194222 1 2 cbr 1000 ------- 1 1.0 2.0 106 106
- 0.194222 1 2 cbr 1000 ------- 1 1.0 2.0 106 106
r 0.194578 1 2 cbr 1000 ------- 1 1.0 2.0 92 92
+ 0.195111 1 2 cbr 1000 ------- 1 1.0 2.0 107 107
- 0.195111 1 2 cbr 1000 ------- 1 1.0 2.0 107 107
r 0.195467 1 2 cbr 1000 ------- 1 1.0 2.0 93 93
+ 0.196 1 2 cbr 1000 ------- 1 1.0 2.0 108 108
- 0.196 1 2 cbr 1000 ------- 1 1.0 2.0 108 108
r 0.196356 1 2 cbr 1000 ------- 1 1.0 2.0 94 94
+ 0.196889 1 2 cbr 1000 ------- 1 1.0 2.0 109 109
- 0.196889 1 2 cbr 1000 ------- 1 1.0 2.0 109 109
r 0.197244 1 2 cbr 1000 ------- 1 1.0 2.0 95 95
+ 0.197778 1 2 cbr 1000 ------- 1 1.0 2.0 110 110
- 0.197778 1 2 cbr 1000 ------- 1 1.0 2.0 110 110
r 0.198133 1 2 cbr 1000 ------- 1 1.0 2.0 96 96
+ 0.198667 1 2 cbr 1000 ------- 1 1.0 2.0 111 111
- 0.198667 1 2 cbr 1000 ------- 1 1.0 2.0 111 111
r 0.199022 1 2 cbr 1000 ------- 1 1.0 2.0 97 97
+ 0.199556 1 2 cbr 1000 ------- 1 1.0 2.0 112 112
- 0.199556 1 2 cbr 1000 ------- 1 1.0 2.0 112 112
r 0.199911 1 2 cbr 1000 ------- 1 1.0 2.0 98 98
+ 0.200444 1 2 cbr 1000 ------- 1 1.0 2.0 113 113
- 0.200444 1 2 cbr 1000 ------- 1 1.0 2.0 113 113
r 0.2008 1 2 cbr 1000 ------- 1 1.0 2.0 99 99
+ 0.201333 1 2 cbr 1000 ------- 1 1.0 2.0 114 114
- 0.201333 1 2 cbr 1000 ------- 1 1.0 2.0 114 114
r 0.201689 1 2 cbr 1000 ------- 1 1.0 2.0 100 100
+ 0.202222 1 2 cbr 1000 ------- 1 1.0 2.0 115 115
- 0.202222 1 2 cbr 1000 ------- 1 1.0 2.0 115 115
r 0.202578 1 2 cbr 1000 ------- 1 1.0 2.0 101 101
+ 0.203111 1 2 cbr 1000 ------- 1 1.0 2.0 116 116
- 0.203111 1 2 cbr 1000 ------- 1 1.0 2.0 116 116
r 0.203467 1 2 cbr 1000 ------- 1 1.0 2.0 102 102
+ 0.204 1 2 cbr 1000 ------- 1 1.0 2.0 117 117
- 0.204 1 2 cbr 1000 ------- 1 1.0 2.0 117 117
r 0.204356 1 2 cbr 1000 ------- 1 1.0 2.0 103 103
+ 0.204889 1 2 cbr 1000 ------- 1 1.0 2.0 118 118
- 0.204889 1 2 cbr 1000 ------- 1 1.0 2.0 118 118
r 0.205244 1 2 cbr 1000 ------- 1 1.0 2.0 104 104
+ 0.205778 1 2 cbr 1000 ------- 1 1.0 2.0 119 119
- 0.205778 1 2 cbr 1000 ------- 1 1.0 2.0 119 119
r 0.206133 1 2 cbr 1000 ------- 1 1.0 2.0 105 105
+ 0.206667 1 2 cbr 1000 ------- 1 1.0 2.0 120 120
- 0.206667 1 2 cbr 1000 ------- 1 1.0 2.0 120 120
r 0.207022 1 2 cbr 1000 ------- 1 1.0 2.0 106 106
+ 0.207556 1 2 cbr 1000 ------- 1 1.0 2.0 121 121
- 0.207556 1 2 cbr 1000 ------- 1 1.0 2.0 121 121
r 0.207911 1 2 cbr 1000 ------- 1 1.0 2.0 107 107
+ 0.208444 1 2 cbr 1000 ------- 1 1.0 2.0 122 122
- 0.208444 1 2 cbr 1000 ------- 1 1.0 2.0 122 122
r 0.2088 1 2 cbr 1000 ------- 1 1.0 2.0 108 108
+ 0.209333 1 2 cbr 1000 ------- 1 1.0 2.0 123 123
- 0.209333 1 2 cbr 1000 ------- 1 1.0 2.0 123 123
r 0.209689 1 2 cbr 1000 ------- 1 1.0 2.0 109 109
+ 0.210222 1 2 cbr 1000 ------- 1 1.0 2.0 124 124
- 0.210222 1 2 cbr 1000 ------- 1 1.0 2.0 124 124
r 0.210578 1 2 cbr 1000 ------- 1 1.0 2.0 110 110
+ 0.211111 1 2 cbr 1000 ------- 1 1.0 2.0 125 125
- 0.211111 1 2 cbr 1000 ------- 1 1.0 2.0 125 125
r 0.211467 1 2 cbr 1000 ------- 1 1.0 2.0 111 111
+ 0.212 1 2 cbr 1000 ------- 1 1.0 2.0 126 126
- 0.212 1 2 cbr 1000 ------- 1 1.0 2.0 126 126
r 0.212356 1 2 cbr 1000 ------- 1 1.0 2.0 112 112
+ 0.212889 1 2 cbr 1000 ------- 1 1.0 2.0 127 127
- 0.212889 1 2 cbr 1000 ------- 1 1.0 2.0 127 127
r 0.213244 1 2 cbr 1000 ------- 1 1.0 2.0 113 113
+ 0.213778 1 2 cbr 1000 ------- 1 1.0 2.0 128 128
- 0.213778 1 2 cbr 1000 ------- 1 1.0 2.0 128 128
r 0.214133 1 2 cbr 1000 ------- 1 1.0 2.0 114 114
+ 0.214667 1 2 cbr 1000 ------- 1 1.0 2.0 129 129
- 0.214667 1 2 cbr 1000 ------- 1 1.0 2.0 129 129
r 0.215022 1 2 cbr 1000 ------- 1 1.0 2.0 115 115
+ 0.215556 1 2 cbr 1000 ------- 1 1.0 2.0 130 130
- 0.215556 1 2 cbr 1000 ------- 1 1.0 2.0 130 130
r 0.215911 1 2 cbr 1000 ------- 1 1.0 2.0 116 116
+ 0.216444 1 2 cbr 1000 ------- 1 1.0 2.0 131 131
- 0.216444 1 2 cbr 1000 ------- 1 1.0 2.0 131 131
r 0.2168 1 2 cbr 1000 ------- 1 1.0 2.0 117 117
+ 0.217333 1 2 cbr 1000 ------- 1 1.0 2.0 132 132
- 0.217333 1 2 cbr 1000 ------- 1 1.0 2.0 132 132
r 0.217689 1 2 cbr 1000 ------- 1 1.0 2.0 118 118
+ 0.218222 1 2 cbr 1000 ------- 1 1.0 2.0 133 133
- 0.218222 1 2 cbr 1000 ------- 1 1.0 2.0 133 133
r 0.218578 1 2 cbr 1000 ------- 1 1.0 2.0 119 119
+ 0.219111 1 2 cbr 1000 ------- 1 1.0 2.0 134 134
- 0.219111 1 2 cbr 1000 ------- 1 1.0 2.0 134 134
r 0.219467 1 2 cbr 1000 ------- 1 1.0 2.0 120 120
+ 0.22 1 2 cbr 1000 ------- 1 1.0 2.0 135 135
- 0.22 1 2 cbr 1000 ------- 1 1.0 2.0 135 135
r 0.220356 1 2 cbr 1000 ------- 1 1.0 2.0 121 121
+ 0.220889 1 2 cbr 1000 ------- 1 1.0 2.0 136 136
- 0.220889 1 2 cbr 1000 ------- 1 1.0 2.0 136 136
r 0.221244 1 2 cbr 1000 ------- 1 1.0 2.0 122 122
+ 0.221778 1 2 cbr 1000 ------- 1 1.0 2.0 137 137
- 0.221778 1 2 cbr 1000 ------- 1 1.0 2.0 137 137
r 0.222133 1 2 cbr 1000 ------- 1 1.0 2.0 123 123
+ 0.222667 1 2 cbr 1000 ------- 1 1.0 2.0 138 138
- 0.222667 1 2 cbr 1000 ------- 1 1.0 2.0 138 138
r 0.223022 1 2 cbr 1000 ------- 1 1.0 2.0 124 124
+ 0.223556 1 2 cbr 1000 ------- 1 1.0 2.0 139 139
- 0.223556 1 2 cbr 1000 ------- 1 1.0 2.0 139 139
r 0.223911 1 2 cbr 1000 ------- 1 1.0 2.0 125 125
+ 0.224444 1 2 cbr 1000 ------- 1 1.0 2.0 140 140
- 0.224444 1 2 cbr 1000 ------- 1 1.0 2.0 140 140
r 0.2248 1 2 cbr 1000 ------- 1 1.0 2.0 126 126
+ 0.225333 1 2 cbr 1000 ------- 1 1.0 2.0 141 141
- 0.225333 1 2 cbr 1000 ------- 1 1.0 2.0 141 141
r 0.225689 1 2 cbr 1000 ------- 1 1.0 2.0 127 127
+ 0.226222 1 2 cbr 1000 ------- 1 1.0 2.0 142 142
- 0.226222 1 2 cbr 1000 ------- 1 1.0 2.0 142 142
r 0.226578 1 2 cbr 1000 ------- 1 1.0 2.0 128 128
+ 0.227111 1 2 cbr 1000 ------- 1 1.0 2.0 143 143
- 0.227111 1 2 cbr 1000 ------- 1 1.0 2.0 143 143
r 0.227467 1 2 cbr 1000 ------- 1 1.0 2.0 129 129
+ 0.228 1 2 cbr 1000 ------- 1 1.0 2.0 144 144
- 0.228 1 2 cbr 1000 ------- 1 1.0 2.0 144 144
r 0.228356 1 2 cbr 1000 ------- 1 1.0 2.0 130 130
+ 0.228889 1 2 cbr 1000 ------- 1 1.0 2.0 145 145
- 0.228889 1 2 cbr 1000 ------- 1 1.0 2.0 145 145
r 0.229244 1 2 cbr 1000 ------- 1 1.0 2.0 131 131
+ 0.229778 1 2 cbr 1000 ------- 1 1.0 2.0 146 146
- 0.229778 1 2 cbr 1000 ------- 1 1.0 2.0 146 146
r 0.230133 1 2 cbr 1000 ------- 1 1.0 2.0 132 132
+ 0.230667 1 2 cbr 1000 ------- 1 1.0 2.0 147 147
- 0.230667 1 2 cbr 1000 ------- 1 1.0 2.0 147 147
r 0.231022 1 2 cbr 1000 ------- 1 1.0 2.0 133 133
+ 0.231556 1 2 cbr 1000 ------- 1 1.0 2.0 148 148
- 0.231556 1 2 cbr 1000 ------- 1 1.0 2.0 148 148
r 0.231911 1 2 cbr 1000 ------- 1 1.0 2.0 134 134
+ 0.232444 1 2 cbr 1000 ------- 1 1.0 2.0 149 149
- 0.232444 1 2 cbr 1000 ------- 1 1.0 2.0 149 149
r 0.2328 1 2 cbr 1000 ------- 1 1.0 2.0 135 135
+ 0.233333 1 2 cbr 1000 ------- 1 1.0 2.0 150 150
- 0.233333 1 2 cbr 1000 ------- 1 1.0 2.0 150 150
r 0.233689 1 2 cbr 1000 ------- 1 1.0 2.0 136 136
+ 0.234222 1 2 cbr 1000 ------- 1 1.0 2.0 151 151
- 0.234222 1 2 cbr 1000 ------- 1 1.0 2.0 151 151
r 0.234578 1 2 cbr 1000 ------- 1 1.0 2.0 137 137
+ 0.235111 1 2 cbr 1000 ------- 1 1.0 2.0 152 152
- 0.235111 1 2 cbr 1000 ------- 1 1.0 2.0 152 152
r 0.235467 1 2 cbr 1000 ------- 1 1.0 2.0 138 138
+ 0.236 1 2 cbr 1000 ------- 1 1.0 2.0 153 153
- 0.236 1 2 cbr 1000 ------- 1 1.0 2.0 153 153
r 0.236356 1 2 cbr 1000 ------- 1 1.0 2.0 139 139
+ 0.236889 1 2 cbr 1000 ------- 1 1.0 2.0 154 154
- 0.236889 1 2 cbr 1000 ------- 1 1.0 2.0 154 154
r 0.237244 1 2 cbr 1000 ------- 1 1.0 2.0 140 140
+ 0.237778 1 2 cbr 1000 ------- 1 1.0 2.0 155 155
- 0.237778 1 2 cbr 1000 ------- 1 1.0 2.0 155 155
r 0.238133 1 2 cbr 1000 ------- 1 1.0 2.0 141 141
+ 0.238667 1 2 cbr 1000 ------- 1 1.0 2.0 156 156
- 0.238667 1 2 cbr 1000 ------- 1 1.0 2.0 156 156
r 0.239022 1 2 cbr 1000 ------- 1 1.0 2.0 142 142
+ 0.239556 1 2 cbr 1000 ------- 1 1.0 2.0 157 157
- 0.239556 1 2 cbr 1000 ------- 1 1.0 2.0 157 157
r 0.239911 1 2 cbr 1000 ------- 1 1.0 2.0 143 143
+ 0.240444 1 2 cbr 1000 ------- 1 1.0 2.0 158 158
- 0.240444 1 2 cbr 1000 ------- 1 1.0 2.0 158 158
r 0.2408 1 2 cbr 1000 ------- 1 1.0 2.0 144 144
+ 0.241333 1 2 cbr 1000 ------- 1 1.0 2.0 159 159
- 0.241333 1 2 cbr 1000 ------- 1 1.0 2.0 159 159
r 0.241689 1 2 cbr 1000 ------- 1 1.0 2.0 145 145
+ 0.242222 1 2 cbr 1000 ------- 1 1.0 2.0 160 160
- 0.242222 1 2 cbr 1000 ------- 1 1.0 2.0 160 160
r 0.242578 1 2 cbr 1000 ------- 1 1.0 2.0 146 146
+ 0.243111 1 2 cbr 1000 ------- 1 1.0 2.0 161 161
- 0.243111 1 2 cbr 1000 ------- 1 1.0 2.0 161 161
r 0.243467 1 2 cbr 1000 ------- 1 1.0 2.0 147 147
+ 0.244 1 2 cbr 1000 ------- 1 1.0 2.0 162 162
- 0.244 1 2 cbr 1000 ------- 1 1.0 2.0 162 162
r 0.244356 1 2 cbr 1000 ------- 1 1.0 2.0 148 148
+ 0.244889 1 2 cbr 1000 ------- 1 1.0 2.0 163 163
- 0.244889 1 2 cbr 1000 ------- 1 1.0 2.0 163 163
r 0.245244 1 2 cbr 1000 ------- 1 1.0 2.0 149 149
+ 0.245778 1 2 cbr 1000 ------- 1 1.0 2.0 164 164
- 0.245778 1 2 cbr 1000 ------- 1 1.0 2.0 164 164
r 0.246133 1 2 cbr 1000 ------- 1 1.0 2.0 150 150
+ 0.246667 1 2 cbr 1000 ------- 1 1.0 2.0 165 165
- 0.246667 1 2 cbr 1000 ------- 1 1.0 2.0 165 165
r 0.247022 1 2 cbr 1000 ------- 1 1.0 2.0 151 151
+ 0.247556 1 2 cbr 1000 ------- 1 1.0 2.0 166 166
- 0.247556 1 2 cbr 1000 ------- 1 1.0 2.0 166 166
r 0.247911 1 2 cbr 1000 ------- 1 1.0 2.0 152 152
+ 0.248444 1 2 cbr 1000 ------- 1 1.0 2.0 167 167
- 0.248444 1 2 cbr 1000 ------- 1 1.0 2.0 167 167
r 0.2488 1 2 cbr 1000 ------- 1 1.0 2.0 153 153
+ 0.249333 1 2 cbr 1000 ------- 1 1.0 2.0 168 168
- 0.249333 1 2 cbr 1000 ------- 1 1.0 2.0 168 168
r 0.249689 1 2 cbr 1000 ------- 1 1.0 2.0 154 154
+ 0.250222 1 2 cbr 1000 ------- 1 1.0 2.0 169 169
- 0.250222 1 2 cbr 1000 ------- 1 1.0 2.0 169 169
r 0.250578 1 2 cbr 1000 ------- 1 1.0 2.0 155 155
+ 0.251111 1 2 cbr 1000 ------- 1 1.0 2.0 170 170
- 0.251111 1 2 cbr 1000 ------- 1 1.0 2.0 170 170
r 0.251467 1 2 cbr 1000 ------- 1 1.0 2.0 156 156
+ 0.252 1 2 cbr 1000 ------- 1 1.0 2.0 171 171
- 0.252 1 2 cbr 1000 ------- 1 1.0 2.0 171 171
r 0.252356 1 2 cbr 1000 ------- 1 1.0 2.0 157 157
+ 0.252889 1 2 cbr 1000 ------- 1 1.0 2.0 172 172
- 0.252889 1 2 cbr 1000 ------- 1 1.0 2.0 172 172
r 0.253244 1 2 cbr 1000 ------- 1 1.0 2.0 158 158
+ 0.253778 1 2 cbr 1000 ------- 1 1.0 2.0 173 173
- 0.253778 1 2 cbr 1000 ------- 1 1.0 2.0 173 173
r 0.254133 1 2 cbr 1000 ------- 1 1.0 2.0 159 159
+ 0.254667 1 2 cbr 1000 ------- 1 1.0 2.0 174 174
- 0.254667 1 2 cbr 1000 ------- 1 1.0 2.0 174 174
r 0.255022 1 2 cbr 1000 ------- 1 1.0 2.0 160 160
+ 0.255556 1 2 cbr 1000 ------- 1 1.0 2.0 175 175
- 0.255556 1 2 cbr 1000 ------- 1 1.0 2.0 175 175
r 0.255911 1 2 cbr 1000 ------- 1 1.0 2.0 161 161
+ 0.256444 1 2 cbr 1000 ------- 1 1.0 2.0 176 176
- 0.256444 1 2 cbr 1000 ------- 1 1.0 2.0 176 176
r 0.2568 1 2 cbr 1000 ------- 1 1.0 2.0 162 162
+ 0.257333 1 2 cbr 1000 ------- 1 1.0 2.0 177 177
- 0.257333 1 2 cbr 1000 ------- 1 1.0 2.0 177 177
r 0.257689 1 2 cbr 1000 ------- 1 1.0 2.0 163 163
+ 0.258222 1 2 cbr 1000 ------- 1 1.0 2.0 178 178
- 0.258222 1 2 cbr 1000 ------- 1 1.0 2.0 178 178
r 0.258578 1 2 cbr 1000 ------- 1 1.0 2.0 164 164
+ 0.259111 1 2 cbr 1000 ------- 1 1.0 2.0 179 179
- 0.259111 1 2 cbr 1000 ------- 1 1.0 2.0 179 179
r 0.259467 1 2 cbr 1000 ------- 1 1.0 2.0 165 165
+ 0.26 1 2 cbr 1000 ------- 1 1.0 2.0 180 180
- 0.26 1 2 cbr 1000 ------- 1 1.0 2.0 180 180
r 0.260356 1 2 cbr 1000 ------- 1 1.0 2.0 166 166
+ 0.260889 1 2 cbr 1000 ------- 1 1.0 2.0 181 181
- 0.260889 1 2 cbr 1000 ------- 1 1.0 2.0 181 181
r 0.261244 1 2 cbr 1000 ------- 1 1.0 2.0 167 167
+ 0.261778 1 2 cbr 1000 ------- 1 1.0 2.0 182 182
- 0.261778 1 2 cbr 1000 ------- 1 1.0 2.0 182 182
r 0.262133 1 2 cbr 1000 ------- 1 1.0 2.0 168 168
+ 0.262667 1 2 cbr 1000 ------- 1 1.0 2.0 183 183
- 0.262667 1 2 cbr 1000 ------- 1 1.0 2.0 183 183
r 0.263022 1 2 cbr 1000 ------- 1 1.0 2.0 169 169
+ 0.263556 1 2 cbr 1000 ------- 1 1.0 2.0 184 184
- 0.263556 1 2 cbr 1000 ------- 1 1.0 2.0 184 184
r 0.263911 1 2 cbr 1000 ------- 1 1.0 2.0 170 170
+ 0.264444 1 2 cbr 1000 ------- 1 1.0 2.0 185 185
- 0.264444 1 2 cbr 1000 ------- 1 1.0 2.0 185 185
r 0.2648 1 2 cbr 1000 ------- 1 1.0 2.0 171 171
+ 0.265333 1 2 cbr 1000 ------- 1 1.0 2.0 186 186
- 0.265333 1 2 cbr 1000 ------- 1 1.0 2.0 186 186
r 0.265689 1 2 cbr 1000 ------- 1 1.0 2.0 172 172
+ 0.266222 1 2 cbr 1000 ------- 1 1.0 2.0 187 187
- 0.266222 1 2 cbr 1000 ------- 1 1.0 2.0 187 187
r 0.266578 1 2 cbr 1000 ------- 1 1.0 2.0 173 173
+ 0.267111 1 2 cbr 1000 ------- 1 1.0 2.0 188 188
- 0.267111 1 2 cbr 1000 ------- 1 1.0 2.0 188 188
r 0.267467 1 2 cbr 1000 ------- 1 1.0 2.0 174 174
+ 0.268 1 2 cbr 1000 ------- 1 1.0 2.0 189 189
- 0.268 1 2 cbr 1000 ------- 1 1.0 2.0 189 189
r 0.268356 1 2 cbr 1000 ------- 1 1.0 2.0 175 175
+ 0.268889 1 2 cbr 1000 ------- 1 1.0 2.0 190 190
- 0.268889 1 2 cbr 1000 ------- 1 1.0 2.0 190 190
r 0.269244 1 2 cbr 1000 ------- 1 1.0 2.0 176 176
+ 0.269778 1 2 cbr 1000 ------- 1 1.0 2.0 191 191
- 0.269778 1 2 cbr 1000 ------- 1 1.0 2.0 191 191
r 0.270133 1 2 cbr 1000 ------- 1 1.0 2.0 177 177
+ 0.270667 1 2 cbr 1000 ------- 1 1.0 2.0 192 192
- 0.270667 1 2 cbr 1000 ------- 1 1.0 2.0 192 192
r 0.271022 1 2 cbr 1000 ------- 1 1.0 2.0 178 178
+ 0.271556 1 2 cbr 1000 ------- 1 1.0 2.0 193 193
- 0.271556 1 2 cbr 1000 ------- 1 1.0 2.0 193 193
r 0.271911 1 2 cbr 1000 ------- 1 1.0 2.0 179 179
+ 0.272444 1 2 cbr 1000 ------- 1 1.0 2.0 194 194
- 0.272444 1 2 cbr 1000 ------- 1 1.0 2.0 194 194
r 0.2728 1 2 cbr 1000 ------- 1 1.0 2.0 180 180
+ 0.273333 1 2 cbr 1000 ------- 1 1.0 2.0 195 195
- 0.273333 1 2 cbr 1000 ------- 1 1.0 2.0 195 195
r 0.273689 1 2 cbr 1000 ------- 1 1.0 2.0 181 181
+ 0.274222 1 2 cbr 1000 ------- 1 1.0 2.0 196 196
- 0.274222 1 2 cbr 1000 ------- 1 1.0 2.0 196 196
r 0.274578 1 2 cbr 1000 ------- 1 1.0 2.0 182 182
+ 0.275111 1 2 cbr 1000 ------- 1 1.0 2.0 197 197
- 0.275111 1 2 cbr 1000 ------- 1 1.0 2.0 197 197
r 0.275467 1 2 cbr 1000 ------- 1 1.0 2.0 183 183
+ 0.276 1 2 cbr 1000 ------- 1 1.0 2.0 198 198
- 0.276 1 2 cbr 1000 ------- 1 1.0 2.0 198 198
r 0.276356 1 2 cbr 1000 ------- 1 1.0 2.0 184 184
+ 0.276889 1 2 cbr 1000 ------- 1 1.0 2.0 199 199
- 0.276889 1 2 cbr 1000 ------- 1 1.0 2.0 199 199
r 0.277244 1 2 cbr 1000 ------- 1 1.0 2.0 185 185
+ 0.277778 1 2 cbr 1000 ------- 1 1.0 2.0 200 200
- 0.277778 1 2 cbr 1000 ------- 1 1.0 2.0 200 200
r 0.278133 1 2 cbr 1000 ------- 1 1.0 2.0 186 186
+ 0.278667 1 2 cbr 1000 ------- 1 1.0 2.0 201 201
- 0.278667 1 2 cbr 1000 ------- 1 1.0 2.0 201 201
r 0.279022 1 2 cbr 1000 ------- 1 1.0 2.0 187 187
+ 0.279556 1 2 cbr 1000 ------- 1 1.0 2.0 202 202
- 0.279556 1 2 cbr 1000 ------- 1 1.0 2.0 202 202
r 0.279911 1 2 cbr 1000 ------- 1 1.0 2.0 188 188
+ 0.280444 1 2 cbr 1000 ------- 1 1.0 2.0 203 203
- 0.280444 1 2 cbr 1000 ------- 1 1.0 2.0 203 203
r 0.2808 1 2 cbr 1000 ------- 1 1.0 2.0 189 189
+ 0.281333 1 2 cbr 1000 ------- 1 1.0 2.0 204 204
- 0.281333 1 2 cbr 1000 ------- 1 1.0 2.0 204 204
r 0.281689 1 2 cbr 1000 ------- 1 1.0 2.0 190 190
+ 0.282222 1 2 cbr 1000 ------- 1 1.0 2.0 205 205
- 0.282222 1 2 cbr 1000 ------- 1 1.0 2.0 205 205
r 0.282578 1 2 cbr 1000 ------- 1 1.0 2.0 191 191
+ 0.283111 1 2 cbr 1000 ------- 1 1.0 2.0 206 206
- 0.283111 1 2 cbr 1000 ------- 1 1.0 2.0 206 206
r 0.283467 1 2 cbr 1000 ------- 1 1.0 2.0 192 192
+ 0.284 1 2 cbr 1000 ------- 1 1.0 2.0 207 207
- 0.284 1 2 cbr 1000 ------- 1 1.0 2.0 207 207
r 0.284356 1 2 cbr 1000 ------- 1 1.0 2.0 193 193
+ 0.284889 1 2 cbr 1000 ------- 1 1.0 2.0 208 208
- 0.284889 1 2 cbr 1000 ------- 1 1.0 2.0 208 208
r 0.285244 1 2 cbr 1000 ------- 1 1.0 2.0 194 194
+ 0.285778 1 2 cbr 1000 ------- 1 1.0 2.0 209 209
- 0.285778 1 2 cbr 1000 ------- 1 1.0 2.0 209 209
r 0.286133 1 2 cbr 1000 ------- 1 1.0 2.0 195 195
+ 0.286667 1 2 cbr 1000 ------- 1 1.0 2.0 210 210