+ 0.1 1 2 cbr 1000 ------- 1 1.0 2.0 0 0
- 0.1 1 2 cbr 1000 ------- 1 1.0 2.0 0 0
+ 0.100816 1 2 cbr 1000 ------- 1 1.0 2.0 1 1
- 0.100816 1 2 cbr 1000 ------- 1 1.0 2.0 1 1
+ 0.101633 1 2 cbr 1000 ------- 1 1.0 2.0 2 2
- 0.101633 1 2 cbr 1000 ------- 1 1.0 2.0 2 2
+ 0.102449 1 2 cbr 1000 ------- 1 1.0 2.0 3 3
- 0.102449 1 2 cbr 1000 ------- 1 1.0 2.0 3 3
+ 0.103265 1 2 cbr 1000 ------- 1 1.0 2.0 4 4
- 0.103265 1 2 cbr 1000 ------- 1 1.0 2.0 4 4
+ 0.104082 1 2 cbr 1000 ------- 1 1.0 2.0 5 5
- 0.104082 1 2 cbr 1000 ------- 1 1.0 2.0 5 5
+ 0.104898 1 2 cbr 1000 ------- 1 1.0 2.0 6 6
- 0.104898 1 2 cbr 1000 ------- 1 1.0 2.0 6 6
+ 0.105714 1 2 cbr 1000 ------- 1 1.0 2.0 7 7
- 0.105714 1 2 cbr 1000 ------- 1 1.0 2.0 7 7
+ 0.106531 1 2 cbr 1000 ------- 1 1.0 2.0 8 8
- 0.106531 1 2 cbr 1000 ------- 1 1.0 2.0 8 8
+ 0.107347 1 2 cbr 1000 ------- 1 1.0 2.0 9 9
- 0.107347 1 2 cbr 1000 ------- 1 1.0 2.0 9 9
+ 0.108163 1 2 cbr 1000 ------- 1 1.0 2.0 10 10
- 0.108163 1 2 cbr 1000 ------- 1 1.0 2.0 10 10
+ 0.10898 1 2 cbr 1000 ------- 1 1.0 2.0 11 11
- 0.10898 1 2 cbr 1000 ------- 1 1.0 2.0 11 11
+ 0.109796 1 2 cbr 1000 ------- 1 1.0 2.0 12 12
- 0.109796 1 2 cbr 1000 ------- 1 1.0 2.0 12 12
+ 0.110612 1 2 cbr 1000 ------- 1 1.0 2.0 13 13
- 0.110612 1 2 cbr 1000 ------- 1 1.0 2.0 13 13
+ 0.111429 1 2 cbr 1000 ------- 1 1.0 2.0 14 14
- 0.111429 1 2 cbr 1000 ------- 1 1.0 2.0 14 14
+ 0.112245 1 2 cbr 1000 ------- 1 1.0 2.0 15 15
- 0.112245 1 2 cbr 1000 ------- 1 1.0 2.0 15 15
r 0.1128 1 2 cbr 1000 ------- 1 1.0 2.0 0 0
+ 0.113061 1 2 cbr 1000 ------- 1 1.0 2.0 16 16
- 0.113061 1 2 cbr 1000 ------- 1 1.0 2.0 16 16
r 0.113616 1 2 cbr 1000 ------- 1 1.0 2.0 1 1
+ 0.113878 1 2 cbr 1000 ------- 1 1.0 2.0 17 17
- 0.113878 1 2 cbr 1000 ------- 1 1.0 2.0 17 17
r 0.114433 1 2 cbr 1000 ------- 1 1.0 2.0 2 2
+ 0.114694 1 2 cbr 1000 ------- 1 1.0 2.0 18 18
- 0.114694 1 2 cbr 1000 ------- 1 1.0 2.0 18 18
r 0.115249 1 2 cbr 1000 ------- 1 1.0 2.0 3 3
+ 0.11551 1 2 cbr 1000 ------- 1 1.0 2.0 19 19
- 0.11551 1 2 cbr 1000 ------- 1 1.0 2.0 19 19
r 0.116065 1 2 cbr 1000 ------- 1 1.0 2.0 4 4
+ 0.116327 1 2 cbr 1000 ------- 1 1.0 2.0 20 20
- 0.116327 1 2 cbr 1000 ------- 1 1.0 2.0 20 20
r 0.116882 1 2 cbr 1000 ------- 1 1.0 2.0 5 5
+ 0.117143 1 2 cbr 1000 ------- 1 1.0 2.0 21 21
- 0.117143 1 2 cbr 1000 ------- 1 1.0 2.0 21 21
r 0.117698 1 2 cbr 1000 ------- 1 1.0 2.0 6 6
+ 0.117959 1 2 cbr 1000 ------- 1 1.0 2.0 22 22
- 0.117959 1 2 cbr 1000 ------- 1 1.0 2.0 22 22
r 0.118514 1 2 cbr 1000 ------- 1 1.0 2.0 7 7
+ 0.118776 1 2 cbr 1000 ------- 1 1.0 2.0 23 23
- 0.118776 1 2 cbr 1000 ------- 1 1.0 2.0 23 23
r 0.119331 1 2 cbr 1000 ------- 1 1.0 2.0 8 8
+ 0.119592 1 2 cbr 1000 ------- 1 1.0 2.0 24 24
- 0.119592 1 2 cbr 1000 ------- 1 1.0 2.0 24 24
r 0.120147 1 2 cbr 1000 ------- 1 1.0 2.0 9 9
+ 0.120408 1 2 cbr 1000 ------- 1 1.0 2.0 25 25
- 0.120408 1 2 cbr 1000 ------- 1 1.0 2.0 25 25
r 0.120963 1 2 cbr 1000 ------- 1 1.0 2.0 10 10
+ 0.121224 1 2 cbr 1000 ------- 1 1.0 2.0 26 26
- 0.121224 1 2 cbr 1000 ------- 1 1.0 2.0 26 26
r 0.12178 1 2 cbr 1000 ------- 1 1.0 2.0 11 11
+ 0.122041 1 2 cbr 1000 ------- 1 1.0 2.0 27 27
- 0.122041 1 2 cbr 1000 ------- 1 1.0 2.0 27 27
r 0.122596 1 2 cbr 1000 ------- 1 1.0 2.0 12 12
+ 0.122857 1 2 cbr 1000 ------- 1 1.0 2.0 28 28
- 0.122857 1 2 cbr 1000 ------- 1 1.0 2.0 28 28
r 0.123412 1 2 cbr 1000 ------- 1 1.0 2.0 13 13
+ 0.123673 1 2 cbr 1000 ------- 1 1.0 2.0 29 29
- 0.123673 1 2 cbr 1000 ------- 1 1.0 2.0 29 29
r 0.124229 1 2 cbr 1000 ------- 1 1.0 2.0 14 14
+ 0.12449 1 2 cbr 1000 ------- 1 1.0 2.0 30 30
- 0.12449 1 2 cbr 1000 ------- 1 1.0 2.0 30 30
r 0.125045 1 2 cbr 1000 ------- 1 1.0 2.0 15 15
+ 0.125306 1 2 cbr 1000 ------- 1 1.0 2.0 31 31
- 0.125306 1 2 cbr 1000 ------- 1 1.0 2.0 31 31
r 0.125861 1 2 cbr 1000 ------- 1 1.0 2.0 16 16
+ 0.126122 1 2 cbr 1000 ------- 1 1.0 2.0 32 32
- 0.126122 1 2 cbr 1000 ------- 1 1.0 2.0 32 32
r 0.126678 1 2 cbr 1000 ------- 1 1.0 2.0 17 17
+ 0.126939 1 2 cbr 1000 ------- 1 1.0 2.0 33 33
- 0.126939 1 2 cbr 1000 ------- 1 1.0 2.0 33 33
r 0.127494 1 2 cbr 1000 ------- 1 1.0 2.0 18 18
+ 0.127755 1 2 cbr 1000 ------- 1 1.0 2.0 34 34
- 0.127755 1 2 cbr 1000 ------- 1 1.0 2.0 34 34
r 0.12831 1 2 cbr 1000 ------- 1 1.0 2.0 19 19
+ 0.128571 1 2 cbr 1000 ------- 1 1.0 2.0 35 35
- 0.128571 1 2 cbr 1000 ------- 1 1.0 2.0 35 35
r 0.129127 1 2 cbr 1000 ------- 1 1.0 2.0 20 20
+ 0.129388 1 2 cbr 1000 ------- 1 1.0 2.0 36 36
- 0.129388 1 2 cbr 1000 ------- 1 1.0 2.0 36 36
r 0.129943 1 2 cbr 1000 ------- 1 1.0 2.0 21 21
+ 0.130204 1 2 cbr 1000 ------- 1 1.0 2.0 37 37
- 0.130204 1 2 cbr 1000 ------- 1 1.0 2.0 37 37
r 0.130759 1 2 cbr 1000 ------- 1 1.0 2.0 22 22
+ 0.13102 1 2 cbr 1000 ------- 1 1.0 2.0 38 38
- 0.13102 1 2 cbr 1000 ------- 1 1.0 2.0 38 38
r 0.131576 1 2 cbr 1000 ------- 1 1.0 2.0 23 23
+ 0.131837 1 2 cbr 1000 ------- 1 1.0 2.0 39 39
- 0.131837 1 2 cbr 1000 ------- 1 1.0 2.0 39 39
r 0.132392 1 2 cbr 1000 ------- 1 1.0 2.0 24 24
+ 0.132653 1 2 cbr 1000 ------- 1 1.0 2.0 40 40
- 0.132653 1 2 cbr 1000 ------- 1 1.0 2.0 40 40
r 0.133208 1 2 cbr 1000 ------- 1 1.0 2.0 25 25
+ 0.133469 1 2 cbr 1000 ------- 1 1.0 2.0 41 41
- 0.133469 1 2 cbr 1000 ------- 1 1.0 2.0 41 41
r 0.134024 1 2 cbr 1000 ------- 1 1.0 2.0 26 26
+ 0.134286 1 2 cbr 1000 ------- 1 1.0 2.0 42 42
- 0.134286 1 2 cbr 1000 ------- 1 1.0 2.0 42 42
r 0.134841 1 2 cbr 1000 ------- 1 1.0 2.0 27 27
+ 0.135102 1 2 cbr 1000 ------- 1 1.0 2.0 43 43
- 0.135102 1 2 cbr 1000 ------- 1 1.0 2.0 43 43
r 0.135657 1 2 cbr 1000 ------- 1 1.0 2.0 28 28
+ 0.135918 1 2 cbr 1000 ------- 1 1.0 2.0 44 44
- 0.135918 1 2 cbr 1000 ------- 1 1.0 2.0 44 44
r 0.136473 1 2 cbr 1000 ------- 1 1.0 2.0 29 29
+ 0.136735 1 2 cbr 1000 ------- 1 1.0 2.0 45 45
- 0.136735 1 2 cbr 1000 ------- 1 1.0 2.0 45 45
r 0.13729 1 2 cbr 1000 ------- 1 1.0 2.0 30 30
+ 0.137551 1 2 cbr 1000 ------- 1 1.0 2.0 46 46
- 0.137551 1 2 cbr 1000 ------- 1 1.0 2.0 46 46
r 0.138106 1 2 cbr 1000 ------- 1 1.0 2.0 31 31
+ 0.138367 1 2 cbr 1000 ------- 1 1.0 2.0 47 47
- 0.138367 1 2 cbr 1000 ------- 1 1.0 2.0 47 47
r 0.138922 1 2 cbr 1000 ------- 1 1.0 2.0 32 32
+ 0.139184 1 2 cbr 1000 ------- 1 1.0 2.0 48 48
- 0.139184 1 2 cbr 1000 ------- 1 1.0 2.0 48 48
r 0.139739 1 2 cbr 1000 ------- 1 1.0 2.0 33 33
+ 0.14 1 2 cbr 1000 ------- 1 1.0 2.0 49 49
- 0.14 1 2 cbr 1000 ------- 1 1.0 2.0 49 49
r 0.140555 1 2 cbr 1000 ------- 1 1.0 2.0 34 34
+ 0.140816 1 2 cbr 1000 ------- 1 1.0 2.0 50 50
- 0.140816 1 2 cbr 1000 ------- 1 1.0 2.0 50 50
r 0.141371 1 2 cbr 1000 ------- 1 1.0 2.0 35 35
+ 0.141633 1 2 cbr 1000 ------- 1 1.0 2.0 51 51
- 0.141633 1 2 cbr 1000 ------- 1 1.0 2.0 51 51
r 0.142188 1 2 cbr 1000 ------- 1 1.0 2.0 36 36
+ 0.142449 1 2 cbr 1000 ------- 1 1.0 2.0 52 52
- 0.142449 1 2 cbr 1000 ------- 1 1.0 2.0 52 52
r 0.143004 1 2 cbr 1000 ------- 1 1.0 2.0 37 37
+ 0.143265 1 2 cbr 1000 ------- 1 1.0 2.0 53 53
- 0.143265 1 2 cbr 1000 ------- 1 1.0 2.0 53 53
r 0.14382 1 2 cbr 1000 ------- 1 1.0 2.0 38 38
+ 0.144082 1 2 cbr 1000 ------- 1 1.0 2.0 54 54
- 0.144082 1 2 cbr 1000 ------- 1 1.0 2.0 54 54
r 0.144637 1 2 cbr 1000 ------- 1 1.0 2.0 39 39
+ 0.144898 1 2 cbr 1000 ------- 1 1.0 2.0 55 55
- 0.144898 1 2 cbr 1000 ------- 1 1.0 2.0 55 55
r 0.145453 1 2 cbr 1000 ------- 1 1.0 2.0 40 40
+ 0.145714 1 2 cbr 1000 ------- 1 1.0 2.0 56 56
- 0.145714 1 2 cbr 1000 ------- 1 1.0 2.0 56 56
r 0.146269 1 2 cbr 1000 ------- 1 1.0 2.0 41 41
+ 0.146531 1 2 cbr 1000 ------- 1 1.0 2.0 57 57
- 0.146531 1 2 cbr 1000 ------- 1 1.0 2.0 57 57
r 0.147086 1 2 cbr 1000 ------- 1 1.0 2.0 42 42
+ 0.147347 1 2 cbr 1000 ------- 1 1.0 2.0 58 58
- 0.147347 1 2 cbr 1000 ------- 1 1.0 2.0 58 58
r 0.147902 1 2 cbr 1000 ------- 1 1.0 2.0 43 43
+ 0.148163 1 2 cbr 1000 ------- 1 1.0 2.0 59 59
- 0.148163 1 2 cbr 1000 ------- 1 1.0 2.0 59 59
r 0.148718 1 2 cbr 1000 ------- 1 1.0 2.0 44 44
+ 0.14898 1 2 cbr 1000 ------- 1 1.0 2.0 60 60
- 0.14898 1 2 cbr 1000 ------- 1 1.0 2.0 60 60
r 0.149535 1 2 cbr 1000 ------- 1 1.0 2.0 45 45
+ 0.149796 1 2 cbr 1000 ------- 1 1.0 2.0 61 61
- 0.149796 1 2 cbr 1000 ------- 1 1.0 2.0 61 61
r 0.150351 1 2 cbr 1000 ------- 1 1.0 2.0 46 46
+ 0.150612 1 2 cbr 1000 ------- 1 1.0 2.0 62 62
- 0.150612 1 2 cbr 1000 ------- 1 1.0 2.0 62 62
r 0.151167 1 2 cbr 1000 ------- 1 1.0 2.0 47 47
+ 0.151429 1 2 cbr 1000 ------- 1 1.0 2.0 63 63
- 0.151429 1 2 cbr 1000 ------- 1 1.0 2.0 63 63
r 0.151984 1 2 cbr 1000 ------- 1 1.0 2.0 48 48
+ 0.152245 1 2 cbr 1000 ------- 1 1.0 2.0 64 64
- 0.152245 1 2 cbr 1000 ------- 1 1.0 2.0 64 64
r 0.1528 1 2 cbr 1000 ------- 1 1.0 2.0 49 49
+ 0.153061 1 2 cbr 1000 ------- 1 1.0 2.0 65 65
- 0.153061 1 2 cbr 1000 ------- 1 1.0 2.0 65 65
r 0.153616 1 2 cbr 1000 ------- 1 1.0 2.0 50 50
+ 0.153878 1 2 cbr 1000 ------- 1 1.0 2.0 66 66
- 0.153878 1 2 cbr 1000 ------- 1 1.0 2.0 66 66
r 0.154433 1 2 cbr 1000 ------- 1 1.0 2.0 51 51
+ 0.154694 1 2 cbr 1000 ------- 1 1.0 2.0 67 67
- 0.154694 1 2 cbr 1000 ------- 1 1.0 2.0 67 67
r 0.155249 1 2 cbr 1000 ------- 1 1.0 2.0 52 52
+ 0.15551 1 2 cbr 1000 ------- 1 1.0 2.0 68 68
- 0.15551 1 2 cbr 1000 ------- 1 1.0 2.0 68 68
r 0.156065 1 2 cbr 1000 ------- 1 1.0 2.0 53 53
+ 0.156327 1 2 cbr 1000 ------- 1 1.0 2.0 69 69
- 0.156327 1 2 cbr 1000 ------- 1 1.0 2.0 69 69
r 0.156882 1 2 cbr 1000 ------- 1 1.0 2.0 54 54
+ 0.157143 1 2 cbr 1000 ------- 1 1.0 2.0 70 70
- 0.157143 1 2 cbr 1000 ------- 1 1.0 2.0 70 70
r 0.157698 1 2 cbr 1000 ------- 1 1.0 2.0 55 55
+ 0.157959 1 2 cbr 1000 ------- 1 1.0 2.0 71 71
- 0.157959 1 2 cbr 1000 ------- 1 1.0 2.0 71 71
r 0.158514 1 2 cbr 1000 ------- 1 1.0 2.0 56 56
+ 0.158776 1 2 cbr 1000 ------- 1 1.0 2.0 72 72
- 0.158776 1 2 cbr 1000 ------- 1 1.0 2.0 72 72
r 0.159331 1 2 cbr 1000 ------- 1 1.0 2.0 57 57
+ 0.159592 1 2 cbr 1000 ------- 1 1.0 2.0 73 73
- 0.159592 1 2 cbr 1000 ------- 1 1.0 2.0 73 73
r 0.160147 1 2 cbr 1000 ------- 1 1.0 2.0 58 58
+ 0.160408 1 2 cbr 1000 ------- 1 1.0 2.0 74 74
- 0.160408 1 2 cbr 1000 ------- 1 1.0 2.0 74 74
r 0.160963 1 2 cbr 1000 ------- 1 1.0 2.0 59 59
+ 0.161224 1 2 cbr 1000 ------- 1 1.0 2.0 75 75
- 0.161224 1 2 cbr 1000 ------- 1 1.0 2.0 75 75
r 0.16178 1 2 cbr 1000 ------- 1 1.0 2.0 60 60
+ 0.162041 1 2 cbr 1000 ------- 1 1.0 2.0 76 76
- 0.162041 1 2 cbr 1000 ------- 1 1.0 2.0 76 76
r 0.162596 1 2 cbr 1000 ------- 1 1.0 2.0 61 61
+ 0.162857 1 2 cbr 1000 ------- 1 1.0 2.0 77 77
- 0.162857 1 2 cbr 1000 ------- 1 1.0 2.0 77 77
r 0.163412 1 2 cbr 1000 ------- 1 1.0 2.0 62 62
+ 0.163673 1 2 cbr 1000 ------- 1 1.0 2.0 78 78
- 0.163673 1 2 cbr 1000 ------- 1 1.0 2.0 78 78
r 0.164229 1 2 cbr 1000 ------- 1 1.0 2.0 63 63
+ 0.16449 1 2 cbr 1000 ------- 1 1.0 2.0 79 79
- 0.16449 1 2 cbr 1000 ------- 1 1.0 2.0 79 79
r 0.165045 1 2 cbr 1000 ------- 1 1.0 2.0 64 64
+ 0.165306 1 2 cbr 1000 ------- 1 1.0 2.0 80 80
- 0.165306 1 2 cbr 1000 ------- 1 1.0 2.0 80 80
r 0.165861 1 2 cbr 1000 ------- 1 1.0 2.0 65 65
+ 0.166122 1 2 cbr 1000 ------- 1 1.0 2.0 81 81
- 0.166122 1 2 cbr 1000 ------- 1 1.0 2.0 81 81
r 0.166678 1 2 cbr 1000 ------- 1 1.0 2.0 66 66
+ 0.166939 1 2 cbr 1000 ------- 1 1.0 2.0 82 82
- 0.166939 1 2 cbr 1000 ------- 1 1.0 2.0 82 82
r 0.167494 1 2 cbr 1000 ------- 1 1.0 2.0 67 67
+ 0.167755 1 2 cbr 1000 ------- 1 1.0 2.0 83 83
- 0.167755 1 2 cbr 1000 ------- 1 1.0 2.0 83 83
r 0.16831 1 2 cbr 1000 ------- 1 1.0 2.0 68 68
+ 0.168571 1 2 cbr 1000 ------- 1 1.0 2.0 84 84
- 0.168571 1 2 cbr 1000 ------- 1 1.0 2.0 84 84
r 0.169127 1 2 cbr 1000 ------- 1 1.0 2.0 69 69
+ 0.169388 1 2 cbr 1000 ------- 1 1.0 2.0 85 85
- 0.169388 1 2 cbr 1000 ------- 1 1.0 2.0 85 85
r 0.169943 1 2 cbr 1000 ------- 1 1.0 2.0 70 70
+ 0.170204 1 2 cbr 1000 ------- 1 1.0 2.0 86 86
- 0.170204 1 2 cbr 1000 ------- 1 1.0 2.0 86 86
r 0.170759 1 2 cbr 1000 ------- 1 1.0 2.0 71 71
+ 0.17102 1 2 cbr 1000 ------- 1 1.0 2.0 87 87
- 0.17102 1 2 cbr 1000 ------- 1 1.0 2.0 87 87
r 0.171576 1 2 cbr 1000 ------- 1 1.0 2.0 72 72
+ 0.171837 1 2 cbr 1000 ------- 1 1.0 2.0 88 88
- 0.171837 1 2 cbr 1000 ------- 1 1.0 2.0 88 88
r 0.172392 1 2 cbr 1000 ------- 1 1.0 2.0 73 73
+ 0.172653 1 2 cbr 1000 ------- 1 1.0 2.0 89 89
- 0.172653 1 2 cbr 1000 ------- 1 1.0 2.0 89 89
r 0.173208 1 2 cbr 1000 ------- 1 1.0 2.0 74 74
+ 0.173469 1 2 cbr 1000 ------- 1 1.0 2.0 90 90
- 0.173469 1 2 cbr 1000 ------- 1 1.0 2.0 90 90
r 0.174024 1 2 cbr 1000 ------- 1 1.0 2.0 75 75
+ 0.174286 1 2 cbr 1000 ------- 1 1.0 2.0 91 91
- 0.174286 1 2 cbr 1000 ------- 1 1.0 2.0 91 91
r 0.174841 1 2 cbr 1000 ------- 1 1.0 2.0 76 76
+ 0.175102 1 2 cbr 1000 ------- 1 1.0 2.0 92 92
- 0.175102 1 2 cbr 1000 ------- 1 1.0 2.0 92 92
r 0.175657 1 2 cbr 1000 ------- 1 1.0 2.0 77 77
+ 0.175918 1 2 cbr 1000 ------- 1 1.0 2.0 93 93
- 0.175918 1 2 cbr 1000 ------- 1 1.0 2.0 93 93
r 0.176473 1 2 cbr 1000 ------- 1 1.0 2.0 78 78
+ 0.176735 1 2 cbr 1000 ------- 1 1.0 2.0 94 94
- 0.176735 1 2 cbr 1000 ------- 1 1.0 2.0 94 94
r 0.17729 1 2 cbr 1000 ------- 1 1.0 2.0 79 79
+ 0.177551 1 2 cbr 1000 ------- 1 1.0 2.0 95 95
- 0.177551 1 2 cbr 1000 ------- 1 1.0 2.0 95 95
r 0.178106 1 2 cbr 1000 ------- 1 1.0 2.0 80 80
+ 0.178367 1 2 cbr 1000 ------- 1 1.0 2.0 96 96
- 0.178367 1 2 cbr 1000 ------- 1 1.0 2.0 96 96
r 0.178922 1 2 cbr 1000 ------- 1 1.0 2.0 81 81
+ 0.179184 1 2 cbr 1000 ------- 1 1.0 2.0 97 97
- 0.179184 1 2 cbr 1000 ------- 1 1.0 2.0 97 97
r 0.179739 1 2 cbr 1000 ------- 1 1.0 2.0 82 82
+ 0.18 1 2 cbr 1000 ------- 1 1.0 2.0 98 98
- 0.18 1 2 cbr 1000 ------- 1 1.0 2.0 98 98
r 0.180555 1 2 cbr 1000 ------- 1 1.0 2.0 83 83
+ 0.180816 1 2 cbr 1000 ------- 1 1.0 2.0 99 99
- 0.180816 1 2 cbr 1000 ------- 1 1.0 2.0 99 99
r 0.181371 1 2 cbr 1000 ------- 1 1.0 2.0 84 84
+ 0.181633 1 2 cbr 1000 ------- 1 1.0 2.0 100 100
- 0.181633 1 2 cbr 1000 ------- 1 1.0 2.0 100 100
r 0.182188 1 2 cbr 1000 ------- 1 1.0 2.0 85 85
+ 0.182449 1 2 cbr 1000 ------- 1 1.0 2.0 101 101
- 0.182449 1 2 cbr 1000 ------- 1 1.0 2.0 101 101
r 0.183004 1 2 cbr 1000 ------- 1 1.0 2.0 86 86
+ 0.183265 1 2 cbr 1000 ------- 1 1.0 2.0 102 102
- 0.183265 1 2 cbr 1000 ------- 1 1.0 2.0 102 102
r 0.18382 1 2 cbr 1000 ------- 1 1.0 2.0 87 87
+ 0.184082 1 2 cbr 1000 ------- 1 1.0 2.0 103 103
- 0.184082 1 2 cbr 1000 ------- 1 1.0 2.0 103 103
r 0.184637 1 2 cbr 1000 ------- 1 1.0 2.0 88 88
+ 0.184898 1 2 cbr 1000 ------- 1 1.0 2.0 104 104
- 0.184898 1 2 cbr 1000 ------- 1 1.0 2.0 104 104
r 0.185453 1 2 cbr 1000 ------- 1 1.0 2.0 89 89
+ 0.185714 1 2 cbr 1000 ------- 1 1.0 2.0 105 105
- 0.185714 1 2 cbr 1000 ------- 1 1.0 2.0 105 105
r 0.186269 1 2 cbr 1000 ------- 1 1.0 2.0 90 90
+ 0.186531 1 2 cbr 1000 ------- 1 1.0 2.0 106 106
- 0.186531 1 2 cbr 1000 ------- 1 1.0 2.0 106 106
r 0.187086 1 2 cbr 1000 ------- 1 1.0 2.0 91 91
+ 0.187347 1 2 cbr 1000 ------- 1 1.0 2.0 107 107
- 0.187347 1 2 cbr 1000 ------- 1 1.0 2.0 107 107
r 0.187902 1 2 cbr 1000 ------- 1 1.0 2.0 92 92
+ 0.188163 1 2 cbr 1000 ------- 1 1.0 2.0 108 108
- 0.188163 1 2 cbr 1000 ------- 1 1.0 2.0 108 108
r 0.188718 1 2 cbr 1000 ------- 1 1.0 2.0 93 93
+ 0.18898 1 2 cbr 1000 ------- 1 1.0 2.0 109 109
- 0.18898 1 2 cbr 1000 ------- 1 1.0 2.0 109 109
r 0.189535 1 2 cbr 1000 ------- 1 1.0 2.0 94 94
+ 0.189796 1 2 cbr 1000 ------- 1 1.0 2.0 110 110
- 0.189796 1 2 cbr 1000 ------- 1 1.0 2.0 110 110
r 0.190351 1 2 cbr 1000 ------- 1 1.0 2.0 95 95
+ 0.190612 1 2 cbr 1000 ------- 1 1.0 2.0 111 111
- 0.190612 1 2 cbr 1000 ------- 1 1.0 2.0 111 111
r 0.191167 1 2 cbr 1000 ------- 1 1.0 2.0 96 96
+ 0.191429 1 2 cbr 1000 ------- 1 1.0 2.0 112 112
- 0.191429 1 2 cbr 1000 ------- 1 1.0 2.0 112 112
r 0.191984 1 2 cbr 1000 ------- 1 1.0 2.0 97 97
+ 0.192245 1 2 cbr 1000 ------- 1 1.0 2.0 113 113
- 0.192245 1 2 cbr 1000 ------- 1 1.0 2.0 113 113
r 0.1928 1 2 cbr 1000 ------- 1 1.0 2.0 98 98
+ 0.193061 1 2 cbr 1000 ------- 1 1.0 2.0 114 114
- 0.193061 1 2 cbr 1000 ------- 1 1.0 2.0 114 114
r 0.193616 1 2 cbr 1000 ------- 1 1.0 2.0 99 99
+ 0.193878 1 2 cbr 1000 ------- 1 1.0 2.0 115 115
- 0.193878 1 2 cbr 1000 ------- 1 1.0 2.0 115 115
r 0.194433 1 2 cbr 1000 ------- 1 1.0 2.0 100 100
+ 0.194694 1 2 cbr 1000 ------- 1 1.0 2.0 116 116
- 0.194694 1 2 cbr 1000 ------- 1 1.0 2.0 116 116
r 0.195249 1 2 cbr 1000 ------- 1 1.0 2.0 101 101
+ 0.19551 1 2 cbr 1000 ------- 1 1.0 2.0 117 117
- 0.19551 1 2 cbr 1000 ------- 1 1.0 2.0 117 117
r 0.196065 1 2 cbr 1000 ------- 1 1.0 2.0 102 102
+ 0.196327 1 2 cbr 1000 ------- 1 1.0 2.0 118 118
- 0.196327 1 2 cbr 1000 ------- 1 1.0 2.0 118 118
r 0.196882 1 2 cbr 1000 ------- 1 1.0 2.0 103 103
+ 0.197143 1 2 cbr 1000 ------- 1 1.0 2.0 119 119
- 0.197143 1 2 cbr 1000 ------- 1 1.0 2.0 119 119
r 0.197698 1 2 cbr 1000 ------- 1 1.0 2.0 104 104
+ 0.197959 1 2 cbr 1000 ------- 1 1.0 2.0 120 120
- 0.197959 1 2 cbr 1000 ------- 1 1.0 2.0 120 120
r 0.198514 1 2 cbr 1000 ------- 1 1.0 2.0 105 105
+ 0.198776 1 2 cbr 1000 ------- 1 1.0 2.0 121 121
- 0.198776 1 2 cbr 1000 ------- 1 1.0 2.0 121 121
r 0.199331 1 2 cbr 1000 ------- 1 1.0 2.0 106 106
+ 0.199592 1 2 cbr 1000 ------- 1 1.0 2.0 122 122
- 0.199592 1 2 cbr 1000 ------- 1 1.0 2.0 122 122
r 0.200147 1 2 cbr 1000 ------- 1 1.0 2.0 107 107
+ 0.200408 1 2 cbr 1000 ------- 1 1.0 2.0 123 123
- 0.200408 1 2 cbr 1000 ------- 1 1.0 2.0 123 123
r 0.200963 1 2 cbr 1000 ------- 1 1.0 2.0 108 108
+ 0.201224 1 2 cbr 1000 ------- 1 1.0 2.0 124 124
- 0.201224 1 2 cbr 1000 ------- 1 1.0 2.0 124 124
r 0.20178 1 2 cbr 1000 ------- 1 1.0 2.0 109 109
+ 0.202041 1 2 cbr 1000 ------- 1 1.0 2.0 125 125
- 0.202041 1 2 cbr 1000 ------- 1 1.0 2.0 125 125
r 0.202596 1 2 cbr 1000 ------- 1 1.0 2.0 110 110
+ 0.202857 1 2 cbr 1000 ------- 1 1.0 2.0 126 126
- 0.202857 1 2 cbr 1000 ------- 1 1.0 2.0 126 126
r 0.203412 1 2 cbr 1000 ------- 1 1.0 2.0 111 111
+ 0.203673 1 2 cbr 1000 ------- 1 1.0 2.0 127 127
- 0.203673 1 2 cbr 1000 ------- 1 1.0 2.0 127 127
r 0.204229 1 2 cbr 1000 ------- 1 1.0 2.0 112 112
+ 0.20449 1 2 cbr 1000 ------- 1 1.0 2.0 128 128
- 0.20449 1 2 cbr 1000 ------- 1 1.0 2.0 128 128
r 0.205045 1 2 cbr 1000 ------- 1 1.0 2.0 113 113
+ 0.205306 1 2 cbr 1000 ------- 1 1.0 2.0 129 129
- 0.205306 1 2 cbr 1000 ------- 1 1.0 2.0 129 129
r 0.205861 1 2 cbr 1000 ------- 1 1.0 2.0 114 114
+ 0.206122 1 2 cbr 1000 ------- 1 1.0 2.0 130 130
- 0.206122 1 2 cbr 1000 ------- 1 1.0 2.0 130 130
r 0.206678 1 2 cbr 1000 ------- 1 1.0 2.0 115 115
+ 0.206939 1 2 cbr 1000 ------- 1 1.0 2.0 131 131
- 0.206939 1 2 cbr 1000 ------- 1 1.0 2.0 131 131
r 0.207494 1 2 cbr 1000 ------- 1 1.0 2.0 116 116
+ 0.207755 1 2 cbr 1000 ------- 1 1.0 2.0 132 132
- 0.207755 1 2 cbr 1000 ------- 1 1.0 2.0 132 132
r 0.20831 1 2 cbr 1000 ------- 1 1.0 2.0 117 117
+ 0.208571 1 2 cbr 1000 ------- 1 1.0 2.0 133 133
- 0.208571 1 2 cbr 1000 ------- 1 1.0 2.0 133 133
r 0.209127 1 2 cbr 1000 ------- 1 1.0 2.0 118 118
+ 0.209388 1 2 cbr 1000 ------- 1 1.0 2.0 134 134
- 0.209388 1 2 cbr 1000 ------- 1 1.0 2.0 134 134
r 0.209943 1 2 cbr 1000 ------- 1 1.0 2.0 119 119
+ 0.210204 1 2 cbr 1000 ------- 1 1.0 2.0 135 135
- 0.210204 1 2 cbr 1000 ------- 1 1.0 2.0 135 135
r 0.210759 1 2 cbr 1000 ------- 1 1.0 2.0 120 120
+ 0.21102 1 2 cbr 1000 ------- 1 1.0 2.0 136 136
- 0.21102 1 2 cbr 1000 ------- 1 1.0 2.0 136 136
r 0.211576 1 2 cbr 1000 ------- 1 1.0 2.0 121 121
+ 0.211837 1 2 cbr 1000 ------- 1 1.0 2.0 137 137
- 0.211837 1 2 cbr 1000 ------- 1 1.0 2.0 137 137
r 0.212392 1 2 cbr 1000 ------- 1 1.0 2.0 122 122
+ 0.212653 1 2 cbr 1000 ------- 1 1.0 2.0 138 138
- 0.212653 1 2 cbr 1000 ------- 1 1.0 2.0 138 138
r 0.213208 1 2 cbr 1000 ------- 1 1.0 2.0 123 123
+ 0.213469 1 2 cbr 1000 ------- 1 1.0 2.0 139 139
- 0.213469 1 2 cbr 1000 ------- 1 1.0 2.0 139 139
r 0.214024 1 2 cbr 1000 ------- 1 1.0 2.0 124 124
+ 0.214286 1 2 cbr 1000 ------- 1 1.0 2.0 140 140
- 0.214286 1 2 cbr 1000 ------- 1 1.0 2.0 140 140
r 0.214841 1 2 cbr 1000 ------- 1 1.0 2.0 125 125
+ 0.215102 1 2 cbr 1000 ------- 1 1.0 2.0 141 141
- 0.215102 1 2 cbr 1000 ------- 1 1.0 2.0 141 141
r 0.215657 1 2 cbr 1000 ------- 1 1.0 2.0 126 126
+ 0.215918 1 2 cbr 1000 ------- 1 1.0 2.0 142 142
- 0.215918 1 2 cbr 1000 ------- 1 1.0 2.0 142 142
r 0.216473 1 2 cbr 1000 ------- 1 1.0 2.0 127 127
+ 0.216735 1 2 cbr 1000 ------- 1 1.0 2.0 143 143
- 0.216735 1 2 cbr 1000 ------- 1 1.0 2.0 143 143
r 0.21729 1 2 cbr 1000 ------- 1 1.0 2.0 128 128
+ 0.217551 1 2 cbr 1000 ------- 1 1.0 2.0 144 144
- 0.217551 1 2 cbr 1000 ------- 1 1.0 2.0 144 144
r 0.218106 1 2 cbr 1000 ------- 1 1.0 2.0 129 129
+ 0.218367 1 2 cbr 1000 ------- 1 1.0 2.0 145 145
- 0.218367 1 2 cbr 1000 ------- 1 1.0 2.0 145 145
r 0.218922 1 2 cbr 1000 ------- 1 1.0 2.0 130 130
+ 0.219184 1 2 cbr 1000 ------- 1 1.0 2.0 146 146
- 0.219184 1 2 cbr 1000 ------- 1 1.0 2.0 146 146
r 0.219739 1 2 cbr 1000 ------- 1 1.0 2.0 131 131
+ 0.22 1 2 cbr 1000 ------- 1 1.0 2.0 147 147
- 0.22 1 2 cbr 1000 ------- 1 1.0 2.0 147 147
r 0.220555 1 2 cbr 1000 ------- 1 1.0 2.0 132 132
+ 0.220816 1 2 cbr 1000 ------- 1 1.0 2.0 148 148
- 0.220816 1 2 cbr 1000 ------- 1 1.0 2.0 148 148
r 0.221371 1 2 cbr 1000 ------- 1 1.0 2.0 133 133
+ 0.221633 1 2 cbr 1000 ------- 1 1.0 2.0 149 149
- 0.221633 1 2 cbr 1000 ------- 1 1.0 2.0 149 149
r 0.222188 1 2 cbr 1000 ------- 1 1.0 2.0 134 134
+ 0.222449 1 2 cbr 1000 ------- 1 1.0 2.0 150 150
- 0.222449 1 2 cbr 1000 ------- 1 1.0 2.0 150 150
r 0.223004 1 2 cbr 1000 ------- 1 1.0 2.0 135 135
+ 0.223265 1 2 cbr 1000 ------- 1 1.0 2.0 151 151
- 0.223265 1 2 cbr 1000 ------- 1 1.0 2.0 151 151
r 0.22382 1 2 cbr 1000 ------- 1 1.0 2.0 136 136
+ 0.224082 1 2 cbr 1000 ------- 1 1.0 2.0 152 152
- 0.224082 1 2 cbr 1000 ------- 1 1.0 2.0 152 152
r 0.224637 1 2 cbr 1000 ------- 1 1.0 2.0 137 137
+ 0.224898 1 2 cbr 1000 ------- 1 1.0 2.0 153 153
- 0.224898 1 2 cbr 1000 ------- 1 1.0 2.0 153 153
r 0.225453 1 2 cbr 1000 ------- 1 1.0 2.0 138 138
+ 0.225714 1 2 cbr 1000 ------- 1 1.0 2.0 154 154
- 0.225714 1 2 cbr 1000 ------- 1 1.0 2.0 154 154
r 0.226269 1 2 cbr 1000 ------- 1 1.0 2.0 139 139
+ 0.226531 1 2 cbr 1000 ------- 1 1.0 2.0 155 155
- 0.226531 1 2 cbr 1000 ------- 1 1.0 2.0 155 155
r 0.227086 1 2 cbr 1000 ------- 1 1.0 2.0 140 140
+ 0.227347 1 2 cbr 1000 ------- 1 1.0 2.0 156 156
- 0.227347 1 2 cbr 1000 ------- 1 1.0 2.0 156 156
r 0.227902 1 2 cbr 1000 ------- 1 1.0 2.0 141 141
+ 0.228163 1 2 cbr 1000 ------- 1 1.0 2.0 157 157
- 0.228163 1 2 cbr 1000 ------- 1 1.0 2.0 157 157
r 0.228718 1 2 cbr 1000 ------- 1 1.0 2.0 142 142
+ 0.22898 1 2 cbr 1000 ------- 1 1.0 2.0 158 158
- 0.22898 1 2 cbr 1000 ------- 1 1.0 2.0 158 158
r 0.229535 1 2 cbr 1000 ------- 1 1.0 2.0 143 143
+ 0.229796 1 2 cbr 1000 ------- 1 1.0 2.0 159 159
- 0.229796 1 2 cbr 1000 ------- 1 1.0 2.0 159 159
r 0.230351 1 2 cbr 1000 ------- 1 1.0 2.0 144 144
+ 0.230612 1 2 cbr 1000 ------- 1 1.0 2.0 160 160
- 0.230612 1 2 cbr 1000 ------- 1 1.0 2.0 160 160
r 0.231167 1 2 cbr 1000 ------- 1 1.0 2.0 145 145
+ 0.231429 1 2 cbr 1000 ------- 1 1.0 2.0 161 161
- 0.231429 1 2 cbr 1000 ------- 1 1.0 2.0 161 161
r 0.231984 1 2 cbr 1000 ------- 1 1.0 2.0 146 146
+ 0.232245 1 2 cbr 1000 ------- 1 1.0 2.0 162 162
- 0.232245 1 2 cbr 1000 ------- 1 1.0 2.0 162 162
r 0.2328 1 2 cbr 1000 ------- 1 1.0 2.0 147 147
+ 0.233061 1 2 cbr 1000 ------- 1 1.0 2.0 163 163
- 0.233061 1 2 cbr 1000 ------- 1 1.0 2.0 163 163
r 0.233616 1 2 cbr 1000 ------- 1 1.0 2.0 148 148
+ 0.233878 1 2 cbr 1000 ------- 1 1.0 2.0 164 164
- 0.233878 1 2 cbr 1000 ------- 1 1.0 2.0 164 164
r 0.234433 1 2 cbr 1000 ------- 1 1.0 2.0 149 149
+ 0.234694 1 2 cbr 1000 ------- 1 1.0 2.0 165 165
- 0.234694 1 2 cbr 1000 ------- 1 1.0 2.0 165 165
r 0.235249 1 2 cbr 1000 ------- 1 1.0 2.0 150 150
+ 0.23551 1 2 cbr 1000 ------- 1 1.0 2.0 166 166
- 0.23551 1 2 cbr 1000 ------- 1 1.0 2.0 166 166
r 0.236065 1 2 cbr 1000 ------- 1 1.0 2.0 151 151
+ 0.236327 1 2 cbr 1000 ------- 1 1.0 2.0 167 167
- 0.236327 1 2 cbr 1000 ------- 1 1.0 2.0 167 167
r 0.236882 1 2 cbr 1000 ------- 1 1.0 2.0 152 152
+ 0.237143 1 2 cbr 1000 ------- 1 1.0 2.0 168 168
- 0.237143 1 2 cbr 1000 ------- 1 1.0 2.0 168 168
r 0.237698 1 2 cbr 1000 ------- 1 1.0 2.0 153 153
+ 0.237959 1 2 cbr 1000 ------- 1 1.0 2.0 169 169
- 0.237959 1 2 cbr 1000 ------- 1 1.0 2.0 169 169
r 0.238514 1 2 cbr 1000 ------- 1 1.0 2.0 154 154
+ 0.238776 1 2 cbr 1000 ------- 1 1.0 2.0 170 170
- 0.238776 1 2 cbr 1000 ------- 1 1.0 2.0 170 170
r 0.239331 1 2 cbr 1000 ------- 1 1.0 2.0 155 155
+ 0.239592 1 2 cbr 1000 ------- 1 1.0 2.0 171 171
- 0.239592 1 2 cbr 1000 ------- 1 1.0 2.0 171 171
r 0.240147 1 2 cbr 1000 ------- 1 1.0 2.0 156 156
+ 0.240408 1 2 cbr 1000 ------- 1 1.0 2.0 172 172
- 0.240408 1 2 cbr 1000 ------- 1 1.0 2.0 172 172
r 0.240963 1 2 cbr 1000 ------- 1 1.0 2.0 157 157
+ 0.241224 1 2 cbr 1000 ------- 1 1.0 2.0 173 173
- 0.241224 1 2 cbr 1000 ------- 1 1.0 2.0 173 173
r 0.24178 1 2 cbr 1000 ------- 1 1.0 2.0 158 158
+ 0.242041 1 2 cbr 1000 ------- 1 1.0 2.0 174 174
- 0.242041 1 2 cbr 1000 ------- 1 1.0 2.0 174 174
r 0.242596 1 2 cbr 1000 ------- 1 1.0 2.0 159 159
+ 0.242857 1 2 cbr 1000 ------- 1 1.0 2.0 175 175
- 0.242857 1 2 cbr 1000 ------- 1 1.0 2.0 175 175
r 0.243412 1 2 cbr 1000 ------- 1 1.0 2.0 160 160
+ 0.243673 1 2 cbr 1000 ------- 1 1.0 2.0 176 176
- 0.243673 1 2 cbr 1000 ------- 1 1.0 2.0 176 176
r 0.244229 1 2 cbr 1000 ------- 1 1.0 2.0 161 161
+ 0.24449 1 2 cbr 1000 ------- 1 1.0 2.0 177 177
- 0.24449 1 2 cbr 1000 ------- 1 1.0 2.0 177 177
r 0.245045 1 2 cbr 1000 ------- 1 1.0 2.0 162 162
+ 0.245306 1 2 cbr 1000 ------- 1 1.0 2.0 178 178
- 0.245306 1 2 cbr 1000 ------- 1 1.0 2.0 178 178
r 0.245861 1 2 cbr 1000 ------- 1 1.0 2.0 163 163
+ 0.246122 1 2 cbr 1000 ------- 1 1.0 2.0 179 179
- 0.246122 1 2 cbr 1000 ------- 1 1.0 2.0 179 179
r 0.246678 1 2 cbr 1000 ------- 1 1.0 2.0 164 164
+ 0.246939 1 2 cbr 1000 ------- 1 1.0 2.0 180 180
- 0.246939 1 2 cbr 1000 ------- 1 1.0 2.0 180 180
r 0.247494 1 2 cbr 1000 ------- 1 1.0 2.0 165 165
+ 0.247755 1 2 cbr 1000 ------- 1 1.0 2.0 181 181
- 0.247755 1 2 cbr 1000 ------- 1 1.0 2.0 181 181
r 0.24831 1 2 cbr 1000 ------- 1 1.0 2.0 166 166
+ 0.248571 1 2 cbr 1000 ------- 1 1.0 2.0 182 182
- 0.248571 1 2 cbr 1000 ------- 1 1.0 2.0 182 182
r 0.249127 1 2 cbr 1000 ------- 1 1.0 2.0 167 167
+ 0.249388 1 2 cbr 1000 ------- 1 1.0 2.0 183 183
- 0.249388 1 2 cbr 1000 ------- 1 1.0 2.0 183 183
r 0.249943 1 2 cbr 1000 ------- 1 1.0 2.0 168 168
+ 0.250204 1 2 cbr 1000 ------- 1 1.0 2.0 184 184
- 0.250204 1 2 cbr 1000 ------- 1 1.0 2.0 184 184
r 0.250759 1 2 cbr 1000 ------- 1 1.0 2.0 169 169
+ 0.25102 1 2 cbr 1000 ------- 1 1.0 2.0 185 185
- 0.25102 1 2 cbr 1000 ------- 1 1.0 2.0 185 185
r 0.251576 1 2 cbr 1000 ------- 1 1.0 2.0 170 170
+ 0.251837 1 2 cbr 1000 ------- 1 1.0 2.0 186 186
- 0.251837 1 2 cbr 1000 ------- 1 1.0 2.0 186 186
r 0.252392 1 2 cbr 1000 ------- 1 1.0 2.0 171 171
+ 0.252653 1 2 cbr 1000 ------- 1 1.0 2.0 187 187
- 0.252653 1 2 cbr 1000 ------- 1 1.0 2.0 187 187
r 0.253208 1 2 cbr 1000 ------- 1 1.0 2.0 172 172
+ 0.253469 1 2 cbr 1000 ------- 1 1.0 2.0 188 188
- 0.253469 1 2 cbr 1000 ------- 1 1.0 2.0 188 188
r 0.254024 1 2 cbr 1000 ------- 1 1.0 2.0 173 173
+ 0.254286 1 2 cbr 1000 ------- 1 1.0 2.0 189 189
- 0.254286 1 2 cbr 1000 ------- 1 1.0 2.0 189 189
r 0.254841 1 2 cbr 1000 ------- 1 1.0 2.0 174 174
+ 0.255102 1 2 cbr 1000 ------- 1 1.0 2.0 190 190
- 0.255102 1 2 cbr 1000 ------- 1 1.0 2.0 190 190
r 0.255657 1 2 cbr 1000 ------- 1 1.0 2.0 175 175
+ 0.255918 1 2 cbr 1000 ------- 1 1.0 2.0 191 191
- 0.255918 1 2 cbr 1000 ------- 1 1.0 2.0 191 191
r 0.256473 1 2 cbr 1000 ------- 1 1.0 2.0 176 176
+ 0.256735 1 2 cbr 1000 ------- 1 1.0 2.0 192 192
- 0.256735 1 2 cbr 1000 ------- 1 1.0 2.0 192 192
r 0.25729 1 2 cbr 1000 ------- 1 1.0 2.0 177 177
+ 0.257551 1 2 cbr 1000 ------- 1 1.0 2.0 193 193
- 0.257551 1 2 cbr 1000 ------- 1 1.0 2.0 193 193
r 0.258106 1 2 cbr 1000 ------- 1 1.0 2.0 178 178
+ 0.258367 1 2 cbr 1000 ------- 1 1.0 2.0 194 194
- 0.258367 1 2 cbr 1000 ------- 1 1.0 2.0 194 194
r 0.258922 1 2 cbr 1000 ------- 1 1.0 2.0 179 179
+ 0.259184 1 2 cbr 1000 ------- 1 1.0 2.0 195 195
- 0.259184 1 2 cbr 1000 ------- 1 1.0 2.0 195 195
r 0.259739 1 2 cbr 1000 ------- 1 1.0 2.0 180 180
+ 0.26 1 2 cbr 1000 ------- 1 1.0 2.0 196 196
- 0.26 1 2 cbr 1000 ------- 1 1.0 2.0 196 196
r 0.260555 1 2 cbr 1000 ------- 1 1.0 2.0 181 181
+ 0.260816 1 2 cbr 1000 ------- 1 1.0 2.0 197 197
- 0.260816 1 2 cbr 1000 ------- 1 1.0 2.0 197 197
r 0.261371 1 2 cbr 1000 ------- 1 1.0 2.0 182 182
+ 0.261633 1 2 cbr 1000 ------- 1 1.0 2.0 198 198
- 0.261633 1 2 cbr 1000 ------- 1 1.0 2.0 198 198
r 0.262188 1 2 cbr 1000 ------- 1 1.0 2.0 183 183
+ 0.262449 1 2 cbr 1000 ------- 1 1.0 2.0 199 199
- 0.262449 1 2 cbr 1000 ------- 1 1.0 2.0 199 199
r 0.263004 1 2 cbr 1000 ------- 1 1.0 2.0 184 184
+ 0.263265 1 2 cbr 1000 ------- 1 1.0 2.0 200 200
- 0.263265 1 2 cbr 1000 ------- 1 1.0 2.0 200 200
r 0.26382 1 2 cbr 1000 ------- 1 1.0 2.0 185 185
+ 0.264082 1 2 cbr 1000 ------- 1 1.0 2.0 201 201
- 0.264082 1 2 cbr 1000 ------- 1 1.0 2.0 201 201
r 0.264637 1 2 cbr 1000 ------- 1 1.0 2.0 186 186
+ 0.264898 1 2 cbr 1000 ------- 1 1.0 2.0 202 202
- 0.264898 1 2 cbr 1000 ------- 1 1.0 2.0 202 202
r 0.265453 1 2 cbr 1000 ------- 1 1.0 2.0 187 187
+ 0.265714 1 2 cbr 1000 ------- 1 1.0 2.0 203 203
- 0.265714 1 2 cbr 1000 ------- 1 1.0 2.0 203 203
r 0.266269 1 2 cbr 1000 ------- 1 1.0 2.0 188 188
+ 0.266531 1 2 cbr 1000 ------- 1 1.0 2.0 204 204
- 0.266531 1 2 cbr 1000 ------- 1 1.0 2.0 204 204
r 0.267086 1 2 cbr 1000 ------- 1 1.0 2.0 189 189
+ 0.267347 1 2 cbr 1000 ------- 1 1.0 2.0 205 205
- 0.267347 1 2 cbr 1000 ------- 1 1.0 2.0 205 205
r 0.267902 1 2 cbr 1000 ------- 1 1.0 2.0 190 190
+ 0.268163 1 2 cbr 1000 ------- 1 1.0 2.0 206 206
- 0.268163 1 2 cbr 1000 ------- 1 1.0 2.0 206 206
r 0.268718 1 2 cbr 1000 ------- 1 1.0 2.0 191 191
+ 0.26898 1 2 cbr 1000 ------- 1 1.0 2.0 207 207
- 0.26898 1 2 cbr 1000 ------- 1 1.0 2.0 207 207
r 0.269535 1 2 cbr 1000 ------- 1 1.0 2.0 192 192
+ 0.269796 1 2 cbr 1000 ------- 1 1.0 2.0 208 208
- 0.269796 1 2 cbr 1000 ------- 1 1.0 2.0 208 208
r 0.270351 1 2 cbr 1000 ------- 1 1.0 2.0 193 193
+ 0.270612 1 2 cbr 1000 ------- 1 1.0 2.0 209 209
- 0.270612 1 2 cbr 1000 ------- 1 1.0 2.0 209 209
r 0.271167 1 2 cbr 1000 ------- 1 1.0 2.0 194 194