+ 0.1 1 2 cbr 1000 ------- 1 1.0 2.0 0 0
- 0.1 1 2 cbr 1000 ------- 1 1.0 2.0 0 0
+ 0.101231 1 2 cbr 1000 ------- 1 1.0 2.0 1 1
- 0.101231 1 2 cbr 1000 ------- 1 1.0 2.0 1 1
+ 0.102462 1 2 cbr 1000 ------- 1 1.0 2.0 2 2
- 0.102462 1 2 cbr 1000 ------- 1 1.0 2.0 2 2
+ 0.103692 1 2 cbr 1000 ------- 1 1.0 2.0 3 3
- 0.103692 1 2 cbr 1000 ------- 1 1.0 2.0 3 3
+ 0.104923 1 2 cbr 1000 ------- 1 1.0 2.0 4 4
- 0.104923 1 2 cbr 1000 ------- 1 1.0 2.0 4 4
+ 0.106154 1 2 cbr 1000 ------- 1 1.0 2.0 5 5
- 0.106154 1 2 cbr 1000 ------- 1 1.0 2.0 5 5
+ 0.107385 1 2 cbr 1000 ------- 1 1.0 2.0 6 6
- 0.107385 1 2 cbr 1000 ------- 1 1.0 2.0 6 6
+ 0.108615 1 2 cbr 1000 ------- 1 1.0 2.0 7 7
- 0.108615 1 2 cbr 1000 ------- 1 1.0 2.0 7 7
+ 0.109846 1 2 cbr 1000 ------- 1 1.0 2.0 8 8
- 0.109846 1 2 cbr 1000 ------- 1 1.0 2.0 8 8
+ 0.111077 1 2 cbr 1000 ------- 1 1.0 2.0 9 9
- 0.111077 1 2 cbr 1000 ------- 1 1.0 2.0 9 9
+ 0.112308 1 2 cbr 1000 ------- 1 1.0 2.0 10 10
- 0.112308 1 2 cbr 1000 ------- 1 1.0 2.0 10 10
r 0.1128 1 2 cbr 1000 ------- 1 1.0 2.0 0 0
+ 0.113538 1 2 cbr 1000 ------- 1 1.0 2.0 11 11
- 0.113538 1 2 cbr 1000 ------- 1 1.0 2.0 11 11
r 0.114031 1 2 cbr 1000 ------- 1 1.0 2.0 1 1
+ 0.114769 1 2 cbr 1000 ------- 1 1.0 2.0 12 12
- 0.114769 1 2 cbr 1000 ------- 1 1.0 2.0 12 12
r 0.115262 1 2 cbr 1000 ------- 1 1.0 2.0 2 2
+ 0.116 1 2 cbr 1000 ------- 1 1.0 2.0 13 13
- 0.116 1 2 cbr 1000 ------- 1 1.0 2.0 13 13
r 0.116492 1 2 cbr 1000 ------- 1 1.0 2.0 3 3
+ 0.117231 1 2 cbr 1000 ------- 1 1.0 2.0 14 14
- 0.117231 1 2 cbr 1000 ------- 1 1.0 2.0 14 14
r 0.117723 1 2 cbr 1000 ------- 1 1.0 2.0 4 4
+ 0.118462 1 2 cbr 1000 ------- 1 1.0 2.0 15 15
- 0.118462 1 2 cbr 1000 ------- 1 1.0 2.0 15 15
r 0.118954 1 2 cbr 1000 ------- 1 1.0 2.0 5 5
+ 0.119692 1 2 cbr 1000 ------- 1 1.0 2.0 16 16
- 0.119692 1 2 cbr 1000 ------- 1 1.0 2.0 16 16
r 0.120185 1 2 cbr 1000 ------- 1 1.0 2.0 6 6
+ 0.120923 1 2 cbr 1000 ------- 1 1.0 2.0 17 17
- 0.120923 1 2 cbr 1000 ------- 1 1.0 2.0 17 17
r 0.121415 1 2 cbr 1000 ------- 1 1.0 2.0 7 7
+ 0.122154 1 2 cbr 1000 ------- 1 1.0 2.0 18 18
- 0.122154 1 2 cbr 1000 ------- 1 1.0 2.0 18 18
r 0.122646 1 2 cbr 1000 ------- 1 1.0 2.0 8 8
+ 0.123385 1 2 cbr 1000 ------- 1 1.0 2.0 19 19
- 0.123385 1 2 cbr 1000 ------- 1 1.0 2.0 19 19
r 0.123877 1 2 cbr 1000 ------- 1 1.0 2.0 9 9
+ 0.124615 1 2 cbr 1000 ------- 1 1.0 2.0 20 20
- 0.124615 1 2 cbr 1000 ------- 1 1.0 2.0 20 20
r 0.125108 1 2 cbr 1000 ------- 1 1.0 2.0 10 10
+ 0.125846 1 2 cbr 1000 ------- 1 1.0 2.0 21 21
- 0.125846 1 2 cbr 1000 ------- 1 1.0 2.0 21 21
r 0.126338 1 2 cbr 1000 ------- 1 1.0 2.0 11 11
+ 0.127077 1 2 cbr 1000 ------- 1 1.0 2.0 22 22
- 0.127077 1 2 cbr 1000 ------- 1 1.0 2.0 22 22
r 0.127569 1 2 cbr 1000 ------- 1 1.0 2.0 12 12
+ 0.128308 1 2 cbr 1000 ------- 1 1.0 2.0 23 23
- 0.128308 1 2 cbr 1000 ------- 1 1.0 2.0 23 23
r 0.1288 1 2 cbr 1000 ------- 1 1.0 2.0 13 13
+ 0.129538 1 2 cbr 1000 ------- 1 1.0 2.0 24 24
- 0.129538 1 2 cbr 1000 ------- 1 1.0 2.0 24 24
r 0.130031 1 2 cbr 1000 ------- 1 1.0 2.0 14 14
+ 0.130769 1 2 cbr 1000 ------- 1 1.0 2.0 25 25
- 0.130769 1 2 cbr 1000 ------- 1 1.0 2.0 25 25
r 0.131262 1 2 cbr 1000 ------- 1 1.0 2.0 15 15
+ 0.132 1 2 cbr 1000 ------- 1 1.0 2.0 26 26
- 0.132 1 2 cbr 1000 ------- 1 1.0 2.0 26 26
r 0.132492 1 2 cbr 1000 ------- 1 1.0 2.0 16 16
+ 0.133231 1 2 cbr 1000 ------- 1 1.0 2.0 27 27
- 0.133231 1 2 cbr 1000 ------- 1 1.0 2.0 27 27
r 0.133723 1 2 cbr 1000 ------- 1 1.0 2.0 17 17
+ 0.134462 1 2 cbr 1000 ------- 1 1.0 2.0 28 28
- 0.134462 1 2 cbr 1000 ------- 1 1.0 2.0 28 28
r 0.134954 1 2 cbr 1000 ------- 1 1.0 2.0 18 18
+ 0.135692 1 2 cbr 1000 ------- 1 1.0 2.0 29 29
- 0.135692 1 2 cbr 1000 ------- 1 1.0 2.0 29 29
r 0.136185 1 2 cbr 1000 ------- 1 1.0 2.0 19 19
+ 0.136923 1 2 cbr 1000 ------- 1 1.0 2.0 30 30
- 0.136923 1 2 cbr 1000 ------- 1 1.0 2.0 30 30
r 0.137415 1 2 cbr 1000 ------- 1 1.0 2.0 20 20
+ 0.138154 1 2 cbr 1000 ------- 1 1.0 2.0 31 31
- 0.138154 1 2 cbr 1000 ------- 1 1.0 2.0 31 31
r 0.138646 1 2 cbr 1000 ------- 1 1.0 2.0 21 21
+ 0.139385 1 2 cbr 1000 ------- 1 1.0 2.0 32 32
- 0.139385 1 2 cbr 1000 ------- 1 1.0 2.0 32 32
r 0.139877 1 2 cbr 1000 ------- 1 1.0 2.0 22 22
+ 0.140615 1 2 cbr 1000 ------- 1 1.0 2.0 33 33
- 0.140615 1 2 cbr 1000 ------- 1 1.0 2.0 33 33
r 0.141108 1 2 cbr 1000 ------- 1 1.0 2.0 23 23
+ 0.141846 1 2 cbr 1000 ------- 1 1.0 2.0 34 34
- 0.141846 1 2 cbr 1000 ------- 1 1.0 2.0 34 34
r 0.142338 1 2 cbr 1000 ------- 1 1.0 2.0 24 24
+ 0.143077 1 2 cbr 1000 ------- 1 1.0 2.0 35 35
- 0.143077 1 2 cbr 1000 ------- 1 1.0 2.0 35 35
r 0.143569 1 2 cbr 1000 ------- 1 1.0 2.0 25 25
+ 0.144308 1 2 cbr 1000 ------- 1 1.0 2.0 36 36
- 0.144308 1 2 cbr 1000 ------- 1 1.0 2.0 36 36
r 0.1448 1 2 cbr 1000 ------- 1 1.0 2.0 26 26
+ 0.145538 1 2 cbr 1000 ------- 1 1.0 2.0 37 37
- 0.145538 1 2 cbr 1000 ------- 1 1.0 2.0 37 37
r 0.146031 1 2 cbr 1000 ------- 1 1.0 2.0 27 27
+ 0.146769 1 2 cbr 1000 ------- 1 1.0 2.0 38 38
- 0.146769 1 2 cbr 1000 ------- 1 1.0 2.0 38 38
r 0.147262 1 2 cbr 1000 ------- 1 1.0 2.0 28 28
+ 0.148 1 2 cbr 1000 ------- 1 1.0 2.0 39 39
- 0.148 1 2 cbr 1000 ------- 1 1.0 2.0 39 39
r 0.148492 1 2 cbr 1000 ------- 1 1.0 2.0 29 29
+ 0.149231 1 2 cbr 1000 ------- 1 1.0 2.0 40 40
- 0.149231 1 2 cbr 1000 ------- 1 1.0 2.0 40 40
r 0.149723 1 2 cbr 1000 ------- 1 1.0 2.0 30 30
+ 0.150462 1 2 cbr 1000 ------- 1 1.0 2.0 41 41
- 0.150462 1 2 cbr 1000 ------- 1 1.0 2.0 41 41
r 0.150954 1 2 cbr 1000 ------- 1 1.0 2.0 31 31
+ 0.151692 1 2 cbr 1000 ------- 1 1.0 2.0 42 42
- 0.151692 1 2 cbr 1000 ------- 1 1.0 2.0 42 42
r 0.152185 1 2 cbr 1000 ------- 1 1.0 2.0 32 32
+ 0.152923 1 2 cbr 1000 ------- 1 1.0 2.0 43 43
- 0.152923 1 2 cbr 1000 ------- 1 1.0 2.0 43 43
r 0.153415 1 2 cbr 1000 ------- 1 1.0 2.0 33 33
+ 0.154154 1 2 cbr 1000 ------- 1 1.0 2.0 44 44
- 0.154154 1 2 cbr 1000 ------- 1 1.0 2.0 44 44
r 0.154646 1 2 cbr 1000 ------- 1 1.0 2.0 34 34
+ 0.155385 1 2 cbr 1000 ------- 1 1.0 2.0 45 45
- 0.155385 1 2 cbr 1000 ------- 1 1.0 2.0 45 45
r 0.155877 1 2 cbr 1000 ------- 1 1.0 2.0 35 35
+ 0.156615 1 2 cbr 1000 ------- 1 1.0 2.0 46 46
- 0.156615 1 2 cbr 1000 ------- 1 1.0 2.0 46 46
r 0.157108 1 2 cbr 1000 ------- 1 1.0 2.0 36 36
+ 0.157846 1 2 cbr 1000 ------- 1 1.0 2.0 47 47
- 0.157846 1 2 cbr 1000 ------- 1 1.0 2.0 47 47
r 0.158338 1 2 cbr 1000 ------- 1 1.0 2.0 37 37
+ 0.159077 1 2 cbr 1000 ------- 1 1.0 2.0 48 48
- 0.159077 1 2 cbr 1000 ------- 1 1.0 2.0 48 48
r 0.159569 1 2 cbr 1000 ------- 1 1.0 2.0 38 38
+ 0.160308 1 2 cbr 1000 ------- 1 1.0 2.0 49 49
- 0.160308 1 2 cbr 1000 ------- 1 1.0 2.0 49 49
r 0.1608 1 2 cbr 1000 ------- 1 1.0 2.0 39 39
+ 0.161538 1 2 cbr 1000 ------- 1 1.0 2.0 50 50
- 0.161538 1 2 cbr 1000 ------- 1 1.0 2.0 50 50
r 0.162031 1 2 cbr 1000 ------- 1 1.0 2.0 40 40
+ 0.162769 1 2 cbr 1000 ------- 1 1.0 2.0 51 51
- 0.162769 1 2 cbr 1000 ------- 1 1.0 2.0 51 51
r 0.163262 1 2 cbr 1000 ------- 1 1.0 2.0 41 41
+ 0.164 1 2 cbr 1000 ------- 1 1.0 2.0 52 52
- 0.164 1 2 cbr 1000 ------- 1 1.0 2.0 52 52
r 0.164492 1 2 cbr 1000 ------- 1 1.0 2.0 42 42
+ 0.165231 1 2 cbr 1000 ------- 1 1.0 2.0 53 53
- 0.165231 1 2 cbr 1000 ------- 1 1.0 2.0 53 53
r 0.165723 1 2 cbr 1000 ------- 1 1.0 2.0 43 43
+ 0.166462 1 2 cbr 1000 ------- 1 1.0 2.0 54 54
- 0.166462 1 2 cbr 1000 ------- 1 1.0 2.0 54 54
r 0.166954 1 2 cbr 1000 ------- 1 1.0 2.0 44 44
+ 0.167692 1 2 cbr 1000 ------- 1 1.0 2.0 55 55
- 0.167692 1 2 cbr 1000 ------- 1 1.0 2.0 55 55
r 0.168185 1 2 cbr 1000 ------- 1 1.0 2.0 45 45
+ 0.168923 1 2 cbr 1000 ------- 1 1.0 2.0 56 56
- 0.168923 1 2 cbr 1000 ------- 1 1.0 2.0 56 56
r 0.169415 1 2 cbr 1000 ------- 1 1.0 2.0 46 46
+ 0.170154 1 2 cbr 1000 ------- 1 1.0 2.0 57 57
- 0.170154 1 2 cbr 1000 ------- 1 1.0 2.0 57 57
r 0.170646 1 2 cbr 1000 ------- 1 1.0 2.0 47 47
+ 0.171385 1 2 cbr 1000 ------- 1 1.0 2.0 58 58
- 0.171385 1 2 cbr 1000 ------- 1 1.0 2.0 58 58
r 0.171877 1 2 cbr 1000 ------- 1 1.0 2.0 48 48
+ 0.172615 1 2 cbr 1000 ------- 1 1.0 2.0 59 59
- 0.172615 1 2 cbr 1000 ------- 1 1.0 2.0 59 59
r 0.173108 1 2 cbr 1000 ------- 1 1.0 2.0 49 49
+ 0.173846 1 2 cbr 1000 ------- 1 1.0 2.0 60 60
- 0.173846 1 2 cbr 1000 ------- 1 1.0 2.0 60 60
r 0.174338 1 2 cbr 1000 ------- 1 1.0 2.0 50 50
+ 0.175077 1 2 cbr 1000 ------- 1 1.0 2.0 61 61
- 0.175077 1 2 cbr 1000 ------- 1 1.0 2.0 61 61
r 0.175569 1 2 cbr 1000 ------- 1 1.0 2.0 51 51
+ 0.176308 1 2 cbr 1000 ------- 1 1.0 2.0 62 62
- 0.176308 1 2 cbr 1000 ------- 1 1.0 2.0 62 62
r 0.1768 1 2 cbr 1000 ------- 1 1.0 2.0 52 52
+ 0.177538 1 2 cbr 1000 ------- 1 1.0 2.0 63 63
- 0.177538 1 2 cbr 1000 ------- 1 1.0 2.0 63 63
r 0.178031 1 2 cbr 1000 ------- 1 1.0 2.0 53 53
+ 0.178769 1 2 cbr 1000 ------- 1 1.0 2.0 64 64
- 0.178769 1 2 cbr 1000 ------- 1 1.0 2.0 64 64
r 0.179262 1 2 cbr 1000 ------- 1 1.0 2.0 54 54
+ 0.18 1 2 cbr 1000 ------- 1 1.0 2.0 65 65
- 0.18 1 2 cbr 1000 ------- 1 1.0 2.0 65 65
r 0.180492 1 2 cbr 1000 ------- 1 1.0 2.0 55 55
+ 0.181231 1 2 cbr 1000 ------- 1 1.0 2.0 66 66
- 0.181231 1 2 cbr 1000 ------- 1 1.0 2.0 66 66
r 0.181723 1 2 cbr 1000 ------- 1 1.0 2.0 56 56
+ 0.182462 1 2 cbr 1000 ------- 1 1.0 2.0 67 67
- 0.182462 1 2 cbr 1000 ------- 1 1.0 2.0 67 67
r 0.182954 1 2 cbr 1000 ------- 1 1.0 2.0 57 57
+ 0.183692 1 2 cbr 1000 ------- 1 1.0 2.0 68 68
- 0.183692 1 2 cbr 1000 ------- 1 1.0 2.0 68 68
r 0.184185 1 2 cbr 1000 ------- 1 1.0 2.0 58 58
+ 0.184923 1 2 cbr 1000 ------- 1 1.0 2.0 69 69
- 0.184923 1 2 cbr 1000 ------- 1 1.0 2.0 69 69
r 0.185415 1 2 cbr 1000 ------- 1 1.0 2.0 59 59
+ 0.186154 1 2 cbr 1000 ------- 1 1.0 2.0 70 70
- 0.186154 1 2 cbr 1000 ------- 1 1.0 2.0 70 70
r 0.186646 1 2 cbr 1000 ------- 1 1.0 2.0 60 60
+ 0.187385 1 2 cbr 1000 ------- 1 1.0 2.0 71 71
- 0.187385 1 2 cbr 1000 ------- 1 1.0 2.0 71 71
r 0.187877 1 2 cbr 1000 ------- 1 1.0 2.0 61 61
+ 0.188615 1 2 cbr 1000 ------- 1 1.0 2.0 72 72
- 0.188615 1 2 cbr 1000 ------- 1 1.0 2.0 72 72
r 0.189108 1 2 cbr 1000 ------- 1 1.0 2.0 62 62
+ 0.189846 1 2 cbr 1000 ------- 1 1.0 2.0 73 73
- 0.189846 1 2 cbr 1000 ------- 1 1.0 2.0 73 73
r 0.190338 1 2 cbr 1000 ------- 1 1.0 2.0 63 63
+ 0.191077 1 2 cbr 1000 ------- 1 1.0 2.0 74 74
- 0.191077 1 2 cbr 1000 ------- 1 1.0 2.0 74 74
r 0.191569 1 2 cbr 1000 ------- 1 1.0 2.0 64 64
+ 0.192308 1 2 cbr 1000 ------- 1 1.0 2.0 75 75
- 0.192308 1 2 cbr 1000 ------- 1 1.0 2.0 75 75
r 0.1928 1 2 cbr 1000 ------- 1 1.0 2.0 65 65
+ 0.193538 1 2 cbr 1000 ------- 1 1.0 2.0 76 76
- 0.193538 1 2 cbr 1000 ------- 1 1.0 2.0 76 76
r 0.194031 1 2 cbr 1000 ------- 1 1.0 2.0 66 66
+ 0.194769 1 2 cbr 1000 ------- 1 1.0 2.0 77 77
- 0.194769 1 2 cbr 1000 ------- 1 1.0 2.0 77 77
r 0.195262 1 2 cbr 1000 ------- 1 1.0 2.0 67 67
+ 0.196 1 2 cbr 1000 ------- 1 1.0 2.0 78 78
- 0.196 1 2 cbr 1000 ------- 1 1.0 2.0 78 78
r 0.196492 1 2 cbr 1000 ------- 1 1.0 2.0 68 68
+ 0.197231 1 2 cbr 1000 ------- 1 1.0 2.0 79 79
- 0.197231 1 2 cbr 1000 ------- 1 1.0 2.0 79 79
r 0.197723 1 2 cbr 1000 ------- 1 1.0 2.0 69 69
+ 0.198462 1 2 cbr 1000 ------- 1 1.0 2.0 80 80
- 0.198462 1 2 cbr 1000 ------- 1 1.0 2.0 80 80
r 0.198954 1 2 cbr 1000 ------- 1 1.0 2.0 70 70
+ 0.199692 1 2 cbr 1000 ------- 1 1.0 2.0 81 81
- 0.199692 1 2 cbr 1000 ------- 1 1.0 2.0 81 81
r 0.200185 1 2 cbr 1000 ------- 1 1.0 2.0 71 71
+ 0.200923 1 2 cbr 1000 ------- 1 1.0 2.0 82 82
- 0.200923 1 2 cbr 1000 ------- 1 1.0 2.0 82 82
r 0.201415 1 2 cbr 1000 ------- 1 1.0 2.0 72 72
+ 0.202154 1 2 cbr 1000 ------- 1 1.0 2.0 83 83
- 0.202154 1 2 cbr 1000 ------- 1 1.0 2.0 83 83
r 0.202646 1 2 cbr 1000 ------- 1 1.0 2.0 73 73
+ 0.203385 1 2 cbr 1000 ------- 1 1.0 2.0 84 84
- 0.203385 1 2 cbr 1000 ------- 1 1.0 2.0 84 84
r 0.203877 1 2 cbr 1000 ------- 1 1.0 2.0 74 74
+ 0.204615 1 2 cbr 1000 ------- 1 1.0 2.0 85 85
- 0.204615 1 2 cbr 1000 ------- 1 1.0 2.0 85 85
r 0.205108 1 2 cbr 1000 ------- 1 1.0 2.0 75 75
+ 0.205846 1 2 cbr 1000 ------- 1 1.0 2.0 86 86
- 0.205846 1 2 cbr 1000 ------- 1 1.0 2.0 86 86
r 0.206338 1 2 cbr 1000 ------- 1 1.0 2.0 76 76
+ 0.207077 1 2 cbr 1000 ------- 1 1.0 2.0 87 87
- 0.207077 1 2 cbr 1000 ------- 1 1.0 2.0 87 87
r 0.207569 1 2 cbr 1000 ------- 1 1.0 2.0 77 77
+ 0.208308 1 2 cbr 1000 ------- 1 1.0 2.0 88 88
- 0.208308 1 2 cbr 1000 ------- 1 1.0 2.0 88 88
r 0.2088 1 2 cbr 1000 ------- 1 1.0 2.0 78 78
+ 0.209538 1 2 cbr 1000 ------- 1 1.0 2.0 89 89
- 0.209538 1 2 cbr 1000 ------- 1 1.0 2.0 89 89
r 0.210031 1 2 cbr 1000 ------- 1 1.0 2.0 79 79
+ 0.210769 1 2 cbr 1000 ------- 1 1.0 2.0 90 90
- 0.210769 1 2 cbr 1000 ------- 1 1.0 2.0 90 90
r 0.211262 1 2 cbr 1000 ------- 1 1.0 2.0 80 80
+ 0.212 1 2 cbr 1000 ------- 1 1.0 2.0 91 91
- 0.212 1 2 cbr 1000 ------- 1 1.0 2.0 91 91
r 0.212492 1 2 cbr 1000 ------- 1 1.0 2.0 81 81
+ 0.213231 1 2 cbr 1000 ------- 1 1.0 2.0 92 92
- 0.213231 1 2 cbr 1000 ------- 1 1.0 2.0 92 92
r 0.213723 1 2 cbr 1000 ------- 1 1.0 2.0 82 82
+ 0.214462 1 2 cbr 1000 ------- 1 1.0 2.0 93 93
- 0.214462 1 2 cbr 1000 ------- 1 1.0 2.0 93 93
r 0.214954 1 2 cbr 1000 ------- 1 1.0 2.0 83 83
+ 0.215692 1 2 cbr 1000 ------- 1 1.0 2.0 94 94
- 0.215692 1 2 cbr 1000 ------- 1 1.0 2.0 94 94
r 0.216185 1 2 cbr 1000 ------- 1 1.0 2.0 84 84
+ 0.216923 1 2 cbr 1000 ------- 1 1.0 2.0 95 95
- 0.216923 1 2 cbr 1000 ------- 1 1.0 2.0 95 95
r 0.217415 1 2 cbr 1000 ------- 1 1.0 2.0 85 85
+ 0.218154 1 2 cbr 1000 ------- 1 1.0 2.0 96 96
- 0.218154 1 2 cbr 1000 ------- 1 1.0 2.0 96 96
r 0.218646 1 2 cbr 1000 ------- 1 1.0 2.0 86 86
+ 0.219385 1 2 cbr 1000 ------- 1 1.0 2.0 97 97
- 0.219385 1 2 cbr 1000 ------- 1 1.0 2.0 97 97
r 0.219877 1 2 cbr 1000 ------- 1 1.0 2.0 87 87
+ 0.220615 1 2 cbr 1000 ------- 1 1.0 2.0 98 98
- 0.220615 1 2 cbr 1000 ------- 1 1.0 2.0 98 98
r 0.221108 1 2 cbr 1000 ------- 1 1.0 2.0 88 88
+ 0.221846 1 2 cbr 1000 ------- 1 1.0 2.0 99 99
- 0.221846 1 2 cbr 1000 ------- 1 1.0 2.0 99 99
r 0.222338 1 2 cbr 1000 ------- 1 1.0 2.0 89 89
+ 0.223077 1 2 cbr 1000 ------- 1 1.0 2.0 100 100
- 0.223077 1 2 cbr 1000 ------- 1 1.0 2.0 100 100
r 0.223569 1 2 cbr 1000 ------- 1 1.0 2.0 90 90
+ 0.224308 1 2 cbr 1000 ------- 1 1.0 2.0 101 101
- 0.224308 1 2 cbr 1000 ------- 1 1.0 2.0 101 101
r 0.2248 1 2 cbr 1000 ------- 1 1.0 2.0 91 91
+ 0.225538 1 2 cbr 1000 ------- 1 1.0 2.0 102 102
- 0.225538 1 2 cbr 1000 ------- 1 1.0 2.0 102 102
r 0.226031 1 2 cbr 1000 ------- 1 1.0 2.0 92 92
+ 0.226769 1 2 cbr 1000 ------- 1 1.0 2.0 103 103
- 0.226769 1 2 cbr 1000 ------- 1 1.0 2.0 103 103
r 0.227262 1 2 cbr 1000 ------- 1 1.0 2.0 93 93
+ 0.228 1 2 cbr 1000 ------- 1 1.0 2.0 104 104
- 0.228 1 2 cbr 1000 ------- 1 1.0 2.0 104 104
r 0.228492 1 2 cbr 1000 ------- 1 1.0 2.0 94 94
+ 0.229231 1 2 cbr 1000 ------- 1 1.0 2.0 105 105
- 0.229231 1 2 cbr 1000 ------- 1 1.0 2.0 105 105
r 0.229723 1 2 cbr 1000 ------- 1 1.0 2.0 95 95
+ 0.230462 1 2 cbr 1000 ------- 1 1.0 2.0 106 106
- 0.230462 1 2 cbr 1000 ------- 1 1.0 2.0 106 106
r 0.230954 1 2 cbr 1000 ------- 1 1.0 2.0 96 96
+ 0.231692 1 2 cbr 1000 ------- 1 1.0 2.0 107 107
- 0.231692 1 2 cbr 1000 ------- 1 1.0 2.0 107 107
r 0.232185 1 2 cbr 1000 ------- 1 1.0 2.0 97 97
+ 0.232923 1 2 cbr 1000 ------- 1 1.0 2.0 108 108
- 0.232923 1 2 cbr 1000 ------- 1 1.0 2.0 108 108
r 0.233415 1 2 cbr 1000 ------- 1 1.0 2.0 98 98
+ 0.234154 1 2 cbr 1000 ------- 1 1.0 2.0 109 109
- 0.234154 1 2 cbr 1000 ------- 1 1.0 2.0 109 109
r 0.234646 1 2 cbr 1000 ------- 1 1.0 2.0 99 99
+ 0.235385 1 2 cbr 1000 ------- 1 1.0 2.0 110 110
- 0.235385 1 2 cbr 1000 ------- 1 1.0 2.0 110 110
r 0.235877 1 2 cbr 1000 ------- 1 1.0 2.0 100 100
+ 0.236615 1 2 cbr 1000 ------- 1 1.0 2.0 111 111
- 0.236615 1 2 cbr 1000 ------- 1 1.0 2.0 111 111
r 0.237108 1 2 cbr 1000 ------- 1 1.0 2.0 101 101
+ 0.237846 1 2 cbr 1000 ------- 1 1.0 2.0 112 112
- 0.237846 1 2 cbr 1000 ------- 1 1.0 2.0 112 112
r 0.238338 1 2 cbr 1000 ------- 1 1.0 2.0 102 102
+ 0.239077 1 2 cbr 1000 ------- 1 1.0 2.0 113 113
- 0.239077 1 2 cbr 1000 ------- 1 1.0 2.0 113 113
r 0.239569 1 2 cbr 1000 ------- 1 1.0 2.0 103 103
+ 0.240308 1 2 cbr 1000 ------- 1 1.0 2.0 114 114
- 0.240308 1 2 cbr 1000 ------- 1 1.0 2.0 114 114
r 0.2408 1 2 cbr 1000 ------- 1 1.0 2.0 104 104
+ 0.241538 1 2 cbr 1000 ------- 1 1.0 2.0 115 115
- 0.241538 1 2 cbr 1000 ------- 1 1.0 2.0 115 115
r 0.242031 1 2 cbr 1000 ------- 1 1.0 2.0 105 105
+ 0.242769 1 2 cbr 1000 ------- 1 1.0 2.0 116 116
- 0.242769 1 2 cbr 1000 ------- 1 1.0 2.0 116 116
r 0.243262 1 2 cbr 1000 ------- 1 1.0 2.0 106 106
+ 0.244 1 2 cbr 1000 ------- 1 1.0 2.0 117 117
- 0.244 1 2 cbr 1000 ------- 1 1.0 2.0 117 117
r 0.244492 1 2 cbr 1000 ------- 1 1.0 2.0 107 107
+ 0.245231 1 2 cbr 1000 ------- 1 1.0 2.0 118 118
- 0.245231 1 2 cbr 1000 ------- 1 1.0 2.0 118 118
r 0.245723 1 2 cbr 1000 ------- 1 1.0 2.0 108 108
+ 0.246462 1 2 cbr 1000 ------- 1 1.0 2.0 119 119
- 0.246462 1 2 cbr 1000 ------- 1 1.0 2.0 119 119
r 0.246954 1 2 cbr 1000 ------- 1 1.0 2.0 109 109
+ 0.247692 1 2 cbr 1000 ------- 1 1.0 2.0 120 120
- 0.247692 1 2 cbr 1000 ------- 1 1.0 2.0 120 120
r 0.248185 1 2 cbr 1000 ------- 1 1.0 2.0 110 110
+ 0.248923 1 2 cbr 1000 ------- 1 1.0 2.0 121 121
- 0.248923 1 2 cbr 1000 ------- 1 1.0 2.0 121 121
r 0.249415 1 2 cbr 1000 ------- 1 1.0 2.0 111 111
+ 0.250154 1 2 cbr 1000 ------- 1 1.0 2.0 122 122
- 0.250154 1 2 cbr 1000 ------- 1 1.0 2.0 122 122
r 0.250646 1 2 cbr 1000 ------- 1 1.0 2.0 112 112
+ 0.251385 1 2 cbr 1000 ------- 1 1.0 2.0 123 123
- 0.251385 1 2 cbr 1000 ------- 1 1.0 2.0 123 123
r 0.251877 1 2 cbr 1000 ------- 1 1.0 2.0 113 113
+ 0.252615 1 2 cbr 1000 ------- 1 1.0 2.0 124 124
- 0.252615 1 2 cbr 1000 ------- 1 1.0 2.0 124 124
r 0.253108 1 2 cbr 1000 ------- 1 1.0 2.0 114 114
+ 0.253846 1 2 cbr 1000 ------- 1 1.0 2.0 125 125
- 0.253846 1 2 cbr 1000 ------- 1 1.0 2.0 125 125
r 0.254338 1 2 cbr 1000 ------- 1 1.0 2.0 115 115
+ 0.255077 1 2 cbr 1000 ------- 1 1.0 2.0 126 126
- 0.255077 1 2 cbr 1000 ------- 1 1.0 2.0 126 126
r 0.255569 1 2 cbr 1000 ------- 1 1.0 2.0 116 116
+ 0.256308 1 2 cbr 1000 ------- 1 1.0 2.0 127 127
- 0.256308 1 2 cbr 1000 ------- 1 1.0 2.0 127 127
r 0.2568 1 2 cbr 1000 ------- 1 1.0 2.0 117 117
+ 0.257538 1 2 cbr 1000 ------- 1 1.0 2.0 128 128
- 0.257538 1 2 cbr 1000 ------- 1 1.0 2.0 128 128
r 0.258031 1 2 cbr 1000 ------- 1 1.0 2.0 118 118
+ 0.258769 1 2 cbr 1000 ------- 1 1.0 2.0 129 129
- 0.258769 1 2 cbr 1000 ------- 1 1.0 2.0 129 129
r 0.259262 1 2 cbr 1000 ------- 1 1.0 2.0 119 119
+ 0.26 1 2 cbr 1000 ------- 1 1.0 2.0 130 130
- 0.26 1 2 cbr 1000 ------- 1 1.0 2.0 130 130
r 0.260492 1 2 cbr 1000 ------- 1 1.0 2.0 120 120
+ 0.261231 1 2 cbr 1000 ------- 1 1.0 2.0 131 131
- 0.261231 1 2 cbr 1000 ------- 1 1.0 2.0 131 131
r 0.261723 1 2 cbr 1000 ------- 1 1.0 2.0 121 121
+ 0.262462 1 2 cbr 1000 ------- 1 1.0 2.0 132 132
- 0.262462 1 2 cbr 1000 ------- 1 1.0 2.0 132 132
r 0.262954 1 2 cbr 1000 ------- 1 1.0 2.0 122 122
+ 0.263692 1 2 cbr 1000 ------- 1 1.0 2.0 133 133
- 0.263692 1 2 cbr 1000 ------- 1 1.0 2.0 133 133
r 0.264185 1 2 cbr 1000 ------- 1 1.0 2.0 123 123
+ 0.264923 1 2 cbr 1000 ------- 1 1.0 2.0 134 134
- 0.264923 1 2 cbr 1000 ------- 1 1.0 2.0 134 134
r 0.265415 1 2 cbr 1000 ------- 1 1.0 2.0 124 124
+ 0.266154 1 2 cbr 1000 ------- 1 1.0 2.0 135 135
- 0.266154 1 2 cbr 1000 ------- 1 1.0 2.0 135 135
r 0.266646 1 2 cbr 1000 ------- 1 1.0 2.0 125 125
+ 0.267385 1 2 cbr 1000 ------- 1 1.0 2.0 136 136
- 0.267385 1 2 cbr 1000 ------- 1 1.0 2.0 136 136
r 0.267877 1 2 cbr 1000 ------- 1 1.0 2.0 126 126
+ 0.268615 1 2 cbr 1000 ------- 1 1.0 2.0 137 137
- 0.268615 1 2 cbr 1000 ------- 1 1.0 2.0 137 137
r 0.269108 1 2 cbr 1000 ------- 1 1.0 2.0 127 127
+ 0.269846 1 2 cbr 1000 ------- 1 1.0 2.0 138 138
- 0.269846 1 2 cbr 1000 ------- 1 1.0 2.0 138 138
r 0.270338 1 2 cbr 1000 ------- 1 1.0 2.0 128 128
+ 0.271077 1 2 cbr 1000 ------- 1 1.0 2.0 139 139
- 0.271077 1 2 cbr 1000 ------- 1 1.0 2.0 139 139
r 0.271569 1 2 cbr 1000 ------- 1 1.0 2.0 129 129
+ 0.272308 1 2 cbr 1000 ------- 1 1.0 2.0 140 140
- 0.272308 1 2 cbr 1000 ------- 1 1.0 2.0 140 140
r 0.2728 1 2 cbr 1000 ------- 1 1.0 2.0 130 130
+ 0.273538 1 2 cbr 1000 ------- 1 1.0 2.0 141 141
- 0.273538 1 2 cbr 1000 ------- 1 1.0 2.0 141 141
r 0.274031 1 2 cbr 1000 ------- 1 1.0 2.0 131 131
+ 0.274769 1 2 cbr 1000 ------- 1 1.0 2.0 142 142
- 0.274769 1 2 cbr 1000 ------- 1 1.0 2.0 142 142
r 0.275262 1 2 cbr 1000 ------- 1 1.0 2.0 132 132
+ 0.276 1 2 cbr 1000 ------- 1 1.0 2.0 143 143
- 0.276 1 2 cbr 1000 ------- 1 1.0 2.0 143 143
r 0.276492 1 2 cbr 1000 ------- 1 1.0 2.0 133 133
+ 0.277231 1 2 cbr 1000 ------- 1 1.0 2.0 144 144
- 0.277231 1 2 cbr 1000 ------- 1 1.0 2.0 144 144
r 0.277723 1 2 cbr 1000 ------- 1 1.0 2.0 134 134
+ 0.278462 1 2 cbr 1000 ------- 1 1.0 2.0 145 145
- 0.278462 1 2 cbr 1000 ------- 1 1.0 2.0 145 145
r 0.278954 1 2 cbr 1000 ------- 1 1.0 2.0 135 135
+ 0.279692 1 2 cbr 1000 ------- 1 1.0 2.0 146 146
- 0.279692 1 2 cbr 1000 ------- 1 1.0 2.0 146 146
r 0.280185 1 2 cbr 1000 ------- 1 1.0 2.0 136 136
+ 0.280923 1 2 cbr 1000 ------- 1 1.0 2.0 147 147
- 0.280923 1 2 cbr 1000 ------- 1 1.0 2.0 147 147
r 0.281415 1 2 cbr 1000 ------- 1 1.0 2.0 137 137
+ 0.282154 1 2 cbr 1000 ------- 1 1.0 2.0 148 148
- 0.282154 1 2 cbr 1000 ------- 1 1.0 2.0 148 148
r 0.282646 1 2 cbr 1000 ------- 1 1.0 2.0 138 138
+ 0.283385 1 2 cbr 1000 ------- 1 1.0 2.0 149 149
- 0.283385 1 2 cbr 1000 ------- 1 1.0 2.0 149 149
r 0.283877 1 2 cbr 1000 ------- 1 1.0 2.0 139 139
+ 0.284615 1 2 cbr 1000 ------- 1 1.0 2.0 150 150
- 0.284615 1 2 cbr 1000 ------- 1 1.0 2.0 150 150
r 0.285108 1 2 cbr 1000 ------- 1 1.0 2.0 140 140
+ 0.285846 1 2 cbr 1000 ------- 1 1.0 2.0 151 151
- 0.285846 1 2 cbr 1000 ------- 1 1.0 2.0 151 151
r 0.286338 1 2 cbr 1000 ------- 1 1.0 2.0 141 141
+ 0.287077 1 2 cbr 1000 ------- 1 1.0 2.0 152 152
- 0.287077 1 2 cbr 1000 ------- 1 1.0 2.0 152 152
r 0.287569 1 2 cbr 1000 ------- 1 1.0 2.0 142 142
+ 0.288308 1 2 cbr 1000 ------- 1 1.0 2.0 153 153
- 0.288308 1 2 cbr 1000 ------- 1 1.0 2.0 153 153
r 0.2888 1 2 cbr 1000 ------- 1 1.0 2.0 143 143
+ 0.289538 1 2 cbr 1000 ------- 1 1.0 2.0 154 154
- 0.289538 1 2 cbr 1000 ------- 1 1.0 2.0 154 154
r 0.290031 1 2 cbr 1000 ------- 1 1.0 2.0 144 144
+ 0.290769 1 2 cbr 1000 ------- 1 1.0 2.0 155 155
- 0.290769 1 2 cbr 1000 ------- 1 1.0 2.0 155 155
r 0.291262 1 2 cbr 1000 ------- 1 1.0 2.0 145 145
+ 0.292 1 2 cbr 1000 ------- 1 1.0 2.0 156 156
- 0.292 1 2 cbr 1000 ------- 1 1.0 2.0 156 156
r 0.292492 1 2 cbr 1000 ------- 1 1.0 2.0 146 146
+ 0.293231 1 2 cbr 1000 ------- 1 1.0 2.0 157 157
- 0.293231 1 2 cbr 1000 ------- 1 1.0 2.0 157 157
r 0.293723 1 2 cbr 1000 ------- 1 1.0 2.0 147 147
+ 0.294462 1 2 cbr 1000 ------- 1 1.0 2.0 158 158
- 0.294462 1 2 cbr 1000 ------- 1 1.0 2.0 158 158
r 0.294954 1 2 cbr 1000 ------- 1 1.0 2.0 148 148
+ 0.295692 1 2 cbr 1000 ------- 1 1.0 2.0 159 159
- 0.295692 1 2 cbr 1000 ------- 1 1.0 2.0 159 159
r 0.296185 1 2 cbr 1000 ------- 1 1.0 2.0 149 149
+ 0.296923 1 2 cbr 1000 ------- 1 1.0 2.0 160 160
- 0.296923 1 2 cbr 1000 ------- 1 1.0 2.0 160 160
r 0.297415 1 2 cbr 1000 ------- 1 1.0 2.0 150 150
+ 0.298154 1 2 cbr 1000 ------- 1 1.0 2.0 161 161
- 0.298154 1 2 cbr 1000 ------- 1 1.0 2.0 161 161
r 0.298646 1 2 cbr 1000 ------- 1 1.0 2.0 151 151
+ 0.299385 1 2 cbr 1000 ------- 1 1.0 2.0 162 162
- 0.299385 1 2 cbr 1000 ------- 1 1.0 2.0 162 162
r 0.299877 1 2 cbr 1000 ------- 1 1.0 2.0 152 152
+ 0.300615 1 2 cbr 1000 ------- 1 1.0 2.0 163 163
- 0.300615 1 2 cbr 1000 ------- 1 1.0 2.0 163 163
r 0.301108 1 2 cbr 1000 ------- 1 1.0 2.0 153 153
+ 0.301846 1 2 cbr 1000 ------- 1 1.0 2.0 164 164
- 0.301846 1 2 cbr 1000 ------- 1 1.0 2.0 164 164
r 0.302338 1 2 cbr 1000 ------- 1 1.0 2.0 154 154
+ 0.303077 1 2 cbr 1000 ------- 1 1.0 2.0 165 165
- 0.303077 1 2 cbr 1000 ------- 1 1.0 2.0 165 165
r 0.303569 1 2 cbr 1000 ------- 1 1.0 2.0 155 155
+ 0.304308 1 2 cbr 1000 ------- 1 1.0 2.0 166 166
- 0.304308 1 2 cbr 1000 ------- 1 1.0 2.0 166 166
r 0.3048 1 2 cbr 1000 ------- 1 1.0 2.0 156 156
+ 0.305538 1 2 cbr 1000 ------- 1 1.0 2.0 167 167
- 0.305538 1 2 cbr 1000 ------- 1 1.0 2.0 167 167
r 0.306031 1 2 cbr 1000 ------- 1 1.0 2.0 157 157
+ 0.306769 1 2 cbr 1000 ------- 1 1.0 2.0 168 168
- 0.306769 1 2 cbr 1000 ------- 1 1.0 2.0 168 168
r 0.307262 1 2 cbr 1000 ------- 1 1.0 2.0 158 158
+ 0.308 1 2 cbr 1000 ------- 1 1.0 2.0 169 169
- 0.308 1 2 cbr 1000 ------- 1 1.0 2.0 169 169
r 0.308492 1 2 cbr 1000 ------- 1 1.0 2.0 159 159
+ 0.309231 1 2 cbr 1000 ------- 1 1.0 2.0 170 170
- 0.309231 1 2 cbr 1000 ------- 1 1.0 2.0 170 170
r 0.309723 1 2 cbr 1000 ------- 1 1.0 2.0 160 160
+ 0.310462 1 2 cbr 1000 ------- 1 1.0 2.0 171 171
- 0.310462 1 2 cbr 1000 ------- 1 1.0 2.0 171 171
r 0.310954 1 2 cbr 1000 ------- 1 1.0 2.0 161 161
+ 0.311692 1 2 cbr 1000 ------- 1 1.0 2.0 172 172
- 0.311692 1 2 cbr 1000 ------- 1 1.0 2.0 172 172
r 0.312185 1 2 cbr 1000 ------- 1 1.0 2.0 162 162
+ 0.312923 1 2 cbr 1000 ------- 1 1.0 2.0 173 173
- 0.312923 1 2 cbr 1000 ------- 1 1.0 2.0 173 173
r 0.313415 1 2 cbr 1000 ------- 1 1.0 2.0 163 163
+ 0.314154 1 2 cbr 1000 ------- 1 1.0 2.0 174 174
- 0.314154 1 2 cbr 1000 ------- 1 1.0 2.0 174 174
r 0.314646 1 2 cbr 1000 ------- 1 1.0 2.0 164 164
+ 0.315385 1 2 cbr 1000 ------- 1 1.0 2.0 175 175
- 0.315385 1 2 cbr 1000 ------- 1 1.0 2.0 175 175
r 0.315877 1 2 cbr 1000 ------- 1 1.0 2.0 165 165
+ 0.316615 1 2 cbr 1000 ------- 1 1.0 2.0 176 176
- 0.316615 1 2 cbr 1000 ------- 1 1.0 2.0 176 176
r 0.317108 1 2 cbr 1000 ------- 1 1.0 2.0 166 166
+ 0.317846 1 2 cbr 1000 ------- 1 1.0 2.0 177 177
- 0.317846 1 2 cbr 1000 ------- 1 1.0 2.0 177 177
r 0.318338 1 2 cbr 1000 ------- 1 1.0 2.0 167 167
+ 0.319077 1 2 cbr 1000 ------- 1 1.0 2.0 178 178
- 0.319077 1 2 cbr 1000 ------- 1 1.0 2.0 178 178
r 0.319569 1 2 cbr 1000 ------- 1 1.0 2.0 168 168
+ 0.320308 1 2 cbr 1000 ------- 1 1.0 2.0 179 179
- 0.320308 1 2 cbr 1000 ------- 1 1.0 2.0 179 179
r 0.3208 1 2 cbr 1000 ------- 1 1.0 2.0 169 169
+ 0.321538 1 2 cbr 1000 ------- 1 1.0 2.0 180 180
- 0.321538 1 2 cbr 1000 ------- 1 1.0 2.0 180 180
r 0.322031 1 2 cbr 1000 ------- 1 1.0 2.0 170 170
+ 0.322769 1 2 cbr 1000 ------- 1 1.0 2.0 181 181
- 0.322769 1 2 cbr 1000 ------- 1 1.0 2.0 181 181
r 0.323262 1 2 cbr 1000 ------- 1 1.0 2.0 171 171
+ 0.324 1 2 cbr 1000 ------- 1 1.0 2.0 182 182
- 0.324 1 2 cbr 1000 ------- 1 1.0 2.0 182 182
r 0.324492 1 2 cbr 1000 ------- 1 1.0 2.0 172 172
+ 0.325231 1 2 cbr 1000 ------- 1 1.0 2.0 183 183
- 0.325231 1 2 cbr 1000 ------- 1 1.0 2.0 183 183
r 0.325723 1 2 cbr 1000 ------- 1 1.0 2.0 173 173
+ 0.326462 1 2 cbr 1000 ------- 1 1.0 2.0 184 184
- 0.326462 1 2 cbr 1000 ------- 1 1.0 2.0 184 184
r 0.326954 1 2 cbr 1000 ------- 1 1.0 2.0 174 174
+ 0.327692 1 2 cbr 1000 ------- 1 1.0 2.0 185 185
- 0.327692 1 2 cbr 1000 ------- 1 1.0 2.0 185 185
r 0.328185 1 2 cbr 1000 ------- 1 1.0 2.0 175 175
+ 0.328923 1 2 cbr 1000 ------- 1 1.0 2.0 186 186
- 0.328923 1 2 cbr 1000 ------- 1 1.0 2.0 186 186
r 0.329415 1 2 cbr 1000 ------- 1 1.0 2.0 176 176
+ 0.330154 1 2 cbr 1000 ------- 1 1.0 2.0 187 187
- 0.330154 1 2 cbr 1000 ------- 1 1.0 2.0 187 187
r 0.330646 1 2 cbr 1000 ------- 1 1.0 2.0 177 177
+ 0.331385 1 2 cbr 1000 ------- 1 1.0 2.0 188 188
- 0.331385 1 2 cbr 1000 ------- 1 1.0 2.0 188 188
r 0.331877 1 2 cbr 1000 ------- 1 1.0 2.0 178 178
+ 0.332615 1 2 cbr 1000 ------- 1 1.0 2.0 189 189
- 0.332615 1 2 cbr 1000 ------- 1 1.0 2.0 189 189
r 0.333108 1 2 cbr 1000 ------- 1 1.0 2.0 179 179
+ 0.333846 1 2 cbr 1000 ------- 1 1.0 2.0 190 190
- 0.333846 1 2 cbr 1000 ------- 1 1.0 2.0 190 190
r 0.334338 1 2 cbr 1000 ------- 1 1.0 2.0 180 180
+ 0.335077 1 2 cbr 1000 ------- 1 1.0 2.0 191 191
- 0.335077 1 2 cbr 1000 ------- 1 1.0 2.0 191 191
r 0.335569 1 2 cbr 1000 ------- 1 1.0 2.0 181 181
+ 0.336308 1 2 cbr 1000 ------- 1 1.0 2.0 192 192
- 0.336308 1 2 cbr 1000 ------- 1 1.0 2.0 192 192
r 0.3368 1 2 cbr 1000 ------- 1 1.0 2.0 182 182
+ 0.337538 1 2 cbr 1000 ------- 1 1.0 2.0 193 193
- 0.337538 1 2 cbr 1000 ------- 1 1.0 2.0 193 193
r 0.338031 1 2 cbr 1000 ------- 1 1.0 2.0 183 183
+ 0.338769 1 2 cbr 1000 ------- 1 1.0 2.0 194 194
- 0.338769 1 2 cbr 1000 ------- 1 1.0 2.0 194 194
r 0.339262 1 2 cbr 1000 ------- 1 1.0 2.0 184 184
+ 0.34 1 2 cbr 1000 ------- 1 1.0 2.0 195 195
- 0.34 1 2 cbr 1000 ------- 1 1.0 2.0 195 195
r 0.340492 1 2 cbr 1000 ------- 1 1.0 2.0 185 185
+ 0.341231 1 2 cbr 1000 ------- 1 1.0 2.0 196 196
- 0.341231 1 2 cbr 1000 ------- 1 1.0 2.0 196 196
r 0.341723 1 2 cbr 1000 ------- 1 1.0 2.0 186 186
+ 0.342462 1 2 cbr 1000 ------- 1 1.0 2.0 197 197
- 0.342462 1 2 cbr 1000 ------- 1 1.0 2.0 197 197
r 0.342954 1 2 cbr 1000 ------- 1 1.0 2.0 187 187
+ 0.343692 1 2 cbr 1000 ------- 1 1.0 2.0 198 198
- 0.343692 1 2 cbr 1000 ------- 1 1.0 2.0 198 198
r 0.344185 1 2 cbr 1000 ------- 1 1.0 2.0 188 188
+ 0.344923 1 2 cbr 1000 ------- 1 1.0 2.0 199 199
- 0.344923 1 2 cbr 1000 ------- 1 1.0 2.0 199 199
r 0.345415 1 2 cbr 1000 ------- 1 1.0 2.0 189 189
+ 0.346154 1 2 cbr 1000 ------- 1 1.0 2.0 200 200
- 0.346154 1 2 cbr 1000 ------- 1 1.0 2.0 200 200
r 0.346646 1 2 cbr 1000 ------- 1 1.0 2.0 190 190
+ 0.347385 1 2 cbr 1000 ------- 1 1.0 2.0 201 201
- 0.347385 1 2 cbr 1000 ------- 1 1.0 2.0 201 201
r 0.347877 1 2 cbr 1000 ------- 1 1.0 2.0 191 191
+ 0.348615 1 2 cbr 1000 ------- 1 1.0 2.0 202 202
- 0.348615 1 2 cbr 1000 ------- 1 1.0 2.0 202 202
r 0.349108 1 2 cbr 1000 ------- 1 1.0 2.0 192 192
+ 0.349846 1 2 cbr 1000 ------- 1 1.0 2.0 203 203
- 0.349846 1 2 cbr 1000 ------- 1 1.0 2.0 203 203
r 0.350338 1 2 cbr 1000 ------- 1 1.0 2.0 193 193
+ 0.351077 1 2 cbr 1000 ------- 1 1.0 2.0 204 204
- 0.351077 1 2 cbr 1000 ------- 1 1.0 2.0 204 204
r 0.351569 1 2 cbr 1000 ------- 1 1.0 2.0 194 194
+ 0.352308 1 2 cbr 1000 ------- 1 1.0 2.0 205 205
- 0.352308 1 2 cbr 1000 ------- 1 1.0 2.0 205 205
r 0.3528 1 2 cbr 1000 ------- 1 1.0 2.0 195 195
+ 0.353538 1 2 cbr 1000 ------- 1 1.0 2.0 206 206
- 0.353538 1 2 cbr 1000 ------- 1 1.0 2.0 206 206
r 0.354031 1 2 cbr 1000 ------- 1 1.0 2.0 196 196
+ 0.354769 1 2 cbr 1000 ------- 1 1.0 2.0 207 207
- 0.354769 1 2 cbr 1000 ------- 1 1.0 2.0 207 207
r 0.355262 1 2 cbr 1000 ------- 1 1.0 2.0 197 197
+ 0.356 1 2 cbr 1000 ------- 1 1.0 2.0 208 208
- 0.356 1 2 cbr 1000 ------- 1 1.0 2.0 208 208