+ 0.1 1 2 cbr 1000 ------- 1 1.0 2.0 0 0
- 0.1 1 2 cbr 1000 ------- 1 1.0 2.0 0 0
+ 0.101333 1 2 cbr 1000 ------- 1 1.0 2.0 1 1
- 0.101333 1 2 cbr 1000 ------- 1 1.0 2.0 1 1
+ 0.102667 1 2 cbr 1000 ------- 1 1.0 2.0 2 2
- 0.102667 1 2 cbr 1000 ------- 1 1.0 2.0 2 2
+ 0.104 1 2 cbr 1000 ------- 1 1.0 2.0 3 3
- 0.104 1 2 cbr 1000 ------- 1 1.0 2.0 3 3
+ 0.105333 1 2 cbr 1000 ------- 1 1.0 2.0 4 4
- 0.105333 1 2 cbr 1000 ------- 1 1.0 2.0 4 4
+ 0.106667 1 2 cbr 1000 ------- 1 1.0 2.0 5 5
- 0.106667 1 2 cbr 1000 ------- 1 1.0 2.0 5 5
+ 0.108 1 2 cbr 1000 ------- 1 1.0 2.0 6 6
- 0.108 1 2 cbr 1000 ------- 1 1.0 2.0 6 6
+ 0.109333 1 2 cbr 1000 ------- 1 1.0 2.0 7 7
- 0.109333 1 2 cbr 1000 ------- 1 1.0 2.0 7 7
+ 0.110667 1 2 cbr 1000 ------- 1 1.0 2.0 8 8
- 0.110667 1 2 cbr 1000 ------- 1 1.0 2.0 8 8
+ 0.112 1 2 cbr 1000 ------- 1 1.0 2.0 9 9
- 0.112 1 2 cbr 1000 ------- 1 1.0 2.0 9 9
r 0.1128 1 2 cbr 1000 ------- 1 1.0 2.0 0 0
+ 0.113333 1 2 cbr 1000 ------- 1 1.0 2.0 10 10
- 0.113333 1 2 cbr 1000 ------- 1 1.0 2.0 10 10
r 0.114133 1 2 cbr 1000 ------- 1 1.0 2.0 1 1
+ 0.114667 1 2 cbr 1000 ------- 1 1.0 2.0 11 11
- 0.114667 1 2 cbr 1000 ------- 1 1.0 2.0 11 11
r 0.115467 1 2 cbr 1000 ------- 1 1.0 2.0 2 2
+ 0.116 1 2 cbr 1000 ------- 1 1.0 2.0 12 12
- 0.116 1 2 cbr 1000 ------- 1 1.0 2.0 12 12
r 0.1168 1 2 cbr 1000 ------- 1 1.0 2.0 3 3
+ 0.117333 1 2 cbr 1000 ------- 1 1.0 2.0 13 13
- 0.117333 1 2 cbr 1000 ------- 1 1.0 2.0 13 13
r 0.118133 1 2 cbr 1000 ------- 1 1.0 2.0 4 4
+ 0.118667 1 2 cbr 1000 ------- 1 1.0 2.0 14 14
- 0.118667 1 2 cbr 1000 ------- 1 1.0 2.0 14 14
r 0.119467 1 2 cbr 1000 ------- 1 1.0 2.0 5 5
+ 0.12 1 2 cbr 1000 ------- 1 1.0 2.0 15 15
- 0.12 1 2 cbr 1000 ------- 1 1.0 2.0 15 15
r 0.1208 1 2 cbr 1000 ------- 1 1.0 2.0 6 6
+ 0.121333 1 2 cbr 1000 ------- 1 1.0 2.0 16 16
- 0.121333 1 2 cbr 1000 ------- 1 1.0 2.0 16 16
r 0.122133 1 2 cbr 1000 ------- 1 1.0 2.0 7 7
+ 0.122667 1 2 cbr 1000 ------- 1 1.0 2.0 17 17
- 0.122667 1 2 cbr 1000 ------- 1 1.0 2.0 17 17
r 0.123467 1 2 cbr 1000 ------- 1 1.0 2.0 8 8
+ 0.124 1 2 cbr 1000 ------- 1 1.0 2.0 18 18
- 0.124 1 2 cbr 1000 ------- 1 1.0 2.0 18 18
r 0.1248 1 2 cbr 1000 ------- 1 1.0 2.0 9 9
+ 0.125333 1 2 cbr 1000 ------- 1 1.0 2.0 19 19
- 0.125333 1 2 cbr 1000 ------- 1 1.0 2.0 19 19
r 0.126133 1 2 cbr 1000 ------- 1 1.0 2.0 10 10
+ 0.126667 1 2 cbr 1000 ------- 1 1.0 2.0 20 20
- 0.126667 1 2 cbr 1000 ------- 1 1.0 2.0 20 20
r 0.127467 1 2 cbr 1000 ------- 1 1.0 2.0 11 11
+ 0.128 1 2 cbr 1000 ------- 1 1.0 2.0 21 21
- 0.128 1 2 cbr 1000 ------- 1 1.0 2.0 21 21
r 0.1288 1 2 cbr 1000 ------- 1 1.0 2.0 12 12
+ 0.129333 1 2 cbr 1000 ------- 1 1.0 2.0 22 22
- 0.129333 1 2 cbr 1000 ------- 1 1.0 2.0 22 22
r 0.130133 1 2 cbr 1000 ------- 1 1.0 2.0 13 13
+ 0.130667 1 2 cbr 1000 ------- 1 1.0 2.0 23 23
- 0.130667 1 2 cbr 1000 ------- 1 1.0 2.0 23 23
r 0.131467 1 2 cbr 1000 ------- 1 1.0 2.0 14 14
+ 0.132 1 2 cbr 1000 ------- 1 1.0 2.0 24 24
- 0.132 1 2 cbr 1000 ------- 1 1.0 2.0 24 24
r 0.1328 1 2 cbr 1000 ------- 1 1.0 2.0 15 15
+ 0.133333 1 2 cbr 1000 ------- 1 1.0 2.0 25 25
- 0.133333 1 2 cbr 1000 ------- 1 1.0 2.0 25 25
r 0.134133 1 2 cbr 1000 ------- 1 1.0 2.0 16 16
+ 0.134667 1 2 cbr 1000 ------- 1 1.0 2.0 26 26
- 0.134667 1 2 cbr 1000 ------- 1 1.0 2.0 26 26
r 0.135467 1 2 cbr 1000 ------- 1 1.0 2.0 17 17
+ 0.136 1 2 cbr 1000 ------- 1 1.0 2.0 27 27
- 0.136 1 2 cbr 1000 ------- 1 1.0 2.0 27 27
r 0.1368 1 2 cbr 1000 ------- 1 1.0 2.0 18 18
+ 0.137333 1 2 cbr 1000 ------- 1 1.0 2.0 28 28
- 0.137333 1 2 cbr 1000 ------- 1 1.0 2.0 28 28
r 0.138133 1 2 cbr 1000 ------- 1 1.0 2.0 19 19
+ 0.138667 1 2 cbr 1000 ------- 1 1.0 2.0 29 29
- 0.138667 1 2 cbr 1000 ------- 1 1.0 2.0 29 29
r 0.139467 1 2 cbr 1000 ------- 1 1.0 2.0 20 20
+ 0.14 1 2 cbr 1000 ------- 1 1.0 2.0 30 30
- 0.14 1 2 cbr 1000 ------- 1 1.0 2.0 30 30
r 0.1408 1 2 cbr 1000 ------- 1 1.0 2.0 21 21
+ 0.141333 1 2 cbr 1000 ------- 1 1.0 2.0 31 31
- 0.141333 1 2 cbr 1000 ------- 1 1.0 2.0 31 31
r 0.142133 1 2 cbr 1000 ------- 1 1.0 2.0 22 22
+ 0.142667 1 2 cbr 1000 ------- 1 1.0 2.0 32 32
- 0.142667 1 2 cbr 1000 ------- 1 1.0 2.0 32 32
r 0.143467 1 2 cbr 1000 ------- 1 1.0 2.0 23 23
+ 0.144 1 2 cbr 1000 ------- 1 1.0 2.0 33 33
- 0.144 1 2 cbr 1000 ------- 1 1.0 2.0 33 33
r 0.1448 1 2 cbr 1000 ------- 1 1.0 2.0 24 24
+ 0.145333 1 2 cbr 1000 ------- 1 1.0 2.0 34 34
- 0.145333 1 2 cbr 1000 ------- 1 1.0 2.0 34 34
r 0.146133 1 2 cbr 1000 ------- 1 1.0 2.0 25 25
+ 0.146667 1 2 cbr 1000 ------- 1 1.0 2.0 35 35
- 0.146667 1 2 cbr 1000 ------- 1 1.0 2.0 35 35
r 0.147467 1 2 cbr 1000 ------- 1 1.0 2.0 26 26
+ 0.148 1 2 cbr 1000 ------- 1 1.0 2.0 36 36
- 0.148 1 2 cbr 1000 ------- 1 1.0 2.0 36 36
r 0.1488 1 2 cbr 1000 ------- 1 1.0 2.0 27 27
+ 0.149333 1 2 cbr 1000 ------- 1 1.0 2.0 37 37
- 0.149333 1 2 cbr 1000 ------- 1 1.0 2.0 37 37
r 0.150133 1 2 cbr 1000 ------- 1 1.0 2.0 28 28
+ 0.150667 1 2 cbr 1000 ------- 1 1.0 2.0 38 38
- 0.150667 1 2 cbr 1000 ------- 1 1.0 2.0 38 38
r 0.151467 1 2 cbr 1000 ------- 1 1.0 2.0 29 29
+ 0.152 1 2 cbr 1000 ------- 1 1.0 2.0 39 39
- 0.152 1 2 cbr 1000 ------- 1 1.0 2.0 39 39
r 0.1528 1 2 cbr 1000 ------- 1 1.0 2.0 30 30
+ 0.153333 1 2 cbr 1000 ------- 1 1.0 2.0 40 40
- 0.153333 1 2 cbr 1000 ------- 1 1.0 2.0 40 40
r 0.154133 1 2 cbr 1000 ------- 1 1.0 2.0 31 31
+ 0.154667 1 2 cbr 1000 ------- 1 1.0 2.0 41 41
- 0.154667 1 2 cbr 1000 ------- 1 1.0 2.0 41 41
r 0.155467 1 2 cbr 1000 ------- 1 1.0 2.0 32 32
+ 0.156 1 2 cbr 1000 ------- 1 1.0 2.0 42 42
- 0.156 1 2 cbr 1000 ------- 1 1.0 2.0 42 42
r 0.1568 1 2 cbr 1000 ------- 1 1.0 2.0 33 33
+ 0.157333 1 2 cbr 1000 ------- 1 1.0 2.0 43 43
- 0.157333 1 2 cbr 1000 ------- 1 1.0 2.0 43 43
r 0.158133 1 2 cbr 1000 ------- 1 1.0 2.0 34 34
+ 0.158667 1 2 cbr 1000 ------- 1 1.0 2.0 44 44
- 0.158667 1 2 cbr 1000 ------- 1 1.0 2.0 44 44
r 0.159467 1 2 cbr 1000 ------- 1 1.0 2.0 35 35
+ 0.16 1 2 cbr 1000 ------- 1 1.0 2.0 45 45
- 0.16 1 2 cbr 1000 ------- 1 1.0 2.0 45 45
r 0.1608 1 2 cbr 1000 ------- 1 1.0 2.0 36 36
+ 0.161333 1 2 cbr 1000 ------- 1 1.0 2.0 46 46
- 0.161333 1 2 cbr 1000 ------- 1 1.0 2.0 46 46
r 0.162133 1 2 cbr 1000 ------- 1 1.0 2.0 37 37
+ 0.162667 1 2 cbr 1000 ------- 1 1.0 2.0 47 47
- 0.162667 1 2 cbr 1000 ------- 1 1.0 2.0 47 47
r 0.163467 1 2 cbr 1000 ------- 1 1.0 2.0 38 38
+ 0.164 1 2 cbr 1000 ------- 1 1.0 2.0 48 48
- 0.164 1 2 cbr 1000 ------- 1 1.0 2.0 48 48
r 0.1648 1 2 cbr 1000 ------- 1 1.0 2.0 39 39
+ 0.165333 1 2 cbr 1000 ------- 1 1.0 2.0 49 49
- 0.165333 1 2 cbr 1000 ------- 1 1.0 2.0 49 49
r 0.166133 1 2 cbr 1000 ------- 1 1.0 2.0 40 40
+ 0.166667 1 2 cbr 1000 ------- 1 1.0 2.0 50 50
- 0.166667 1 2 cbr 1000 ------- 1 1.0 2.0 50 50
r 0.167467 1 2 cbr 1000 ------- 1 1.0 2.0 41 41
+ 0.168 1 2 cbr 1000 ------- 1 1.0 2.0 51 51
- 0.168 1 2 cbr 1000 ------- 1 1.0 2.0 51 51
r 0.1688 1 2 cbr 1000 ------- 1 1.0 2.0 42 42
+ 0.169333 1 2 cbr 1000 ------- 1 1.0 2.0 52 52
- 0.169333 1 2 cbr 1000 ------- 1 1.0 2.0 52 52
r 0.170133 1 2 cbr 1000 ------- 1 1.0 2.0 43 43
+ 0.170667 1 2 cbr 1000 ------- 1 1.0 2.0 53 53
- 0.170667 1 2 cbr 1000 ------- 1 1.0 2.0 53 53
r 0.171467 1 2 cbr 1000 ------- 1 1.0 2.0 44 44
+ 0.172 1 2 cbr 1000 ------- 1 1.0 2.0 54 54
- 0.172 1 2 cbr 1000 ------- 1 1.0 2.0 54 54
r 0.1728 1 2 cbr 1000 ------- 1 1.0 2.0 45 45
+ 0.173333 1 2 cbr 1000 ------- 1 1.0 2.0 55 55
- 0.173333 1 2 cbr 1000 ------- 1 1.0 2.0 55 55
r 0.174133 1 2 cbr 1000 ------- 1 1.0 2.0 46 46
+ 0.174667 1 2 cbr 1000 ------- 1 1.0 2.0 56 56
- 0.174667 1 2 cbr 1000 ------- 1 1.0 2.0 56 56
r 0.175467 1 2 cbr 1000 ------- 1 1.0 2.0 47 47
+ 0.176 1 2 cbr 1000 ------- 1 1.0 2.0 57 57
- 0.176 1 2 cbr 1000 ------- 1 1.0 2.0 57 57
r 0.1768 1 2 cbr 1000 ------- 1 1.0 2.0 48 48
+ 0.177333 1 2 cbr 1000 ------- 1 1.0 2.0 58 58
- 0.177333 1 2 cbr 1000 ------- 1 1.0 2.0 58 58
r 0.178133 1 2 cbr 1000 ------- 1 1.0 2.0 49 49
+ 0.178667 1 2 cbr 1000 ------- 1 1.0 2.0 59 59
- 0.178667 1 2 cbr 1000 ------- 1 1.0 2.0 59 59
r 0.179467 1 2 cbr 1000 ------- 1 1.0 2.0 50 50
+ 0.18 1 2 cbr 1000 ------- 1 1.0 2.0 60 60
- 0.18 1 2 cbr 1000 ------- 1 1.0 2.0 60 60
r 0.1808 1 2 cbr 1000 ------- 1 1.0 2.0 51 51
+ 0.181333 1 2 cbr 1000 ------- 1 1.0 2.0 61 61
- 0.181333 1 2 cbr 1000 ------- 1 1.0 2.0 61 61
r 0.182133 1 2 cbr 1000 ------- 1 1.0 2.0 52 52
+ 0.182667 1 2 cbr 1000 ------- 1 1.0 2.0 62 62
- 0.182667 1 2 cbr 1000 ------- 1 1.0 2.0 62 62
r 0.183467 1 2 cbr 1000 ------- 1 1.0 2.0 53 53
+ 0.184 1 2 cbr 1000 ------- 1 1.0 2.0 63 63
- 0.184 1 2 cbr 1000 ------- 1 1.0 2.0 63 63
r 0.1848 1 2 cbr 1000 ------- 1 1.0 2.0 54 54
+ 0.185333 1 2 cbr 1000 ------- 1 1.0 2.0 64 64
- 0.185333 1 2 cbr 1000 ------- 1 1.0 2.0 64 64
r 0.186133 1 2 cbr 1000 ------- 1 1.0 2.0 55 55
+ 0.186667 1 2 cbr 1000 ------- 1 1.0 2.0 65 65
- 0.186667 1 2 cbr 1000 ------- 1 1.0 2.0 65 65
r 0.187467 1 2 cbr 1000 ------- 1 1.0 2.0 56 56
+ 0.188 1 2 cbr 1000 ------- 1 1.0 2.0 66 66
- 0.188 1 2 cbr 1000 ------- 1 1.0 2.0 66 66
r 0.1888 1 2 cbr 1000 ------- 1 1.0 2.0 57 57
+ 0.189333 1 2 cbr 1000 ------- 1 1.0 2.0 67 67
- 0.189333 1 2 cbr 1000 ------- 1 1.0 2.0 67 67
r 0.190133 1 2 cbr 1000 ------- 1 1.0 2.0 58 58
+ 0.190667 1 2 cbr 1000 ------- 1 1.0 2.0 68 68
- 0.190667 1 2 cbr 1000 ------- 1 1.0 2.0 68 68
r 0.191467 1 2 cbr 1000 ------- 1 1.0 2.0 59 59
+ 0.192 1 2 cbr 1000 ------- 1 1.0 2.0 69 69
- 0.192 1 2 cbr 1000 ------- 1 1.0 2.0 69 69
r 0.1928 1 2 cbr 1000 ------- 1 1.0 2.0 60 60
+ 0.193333 1 2 cbr 1000 ------- 1 1.0 2.0 70 70
- 0.193333 1 2 cbr 1000 ------- 1 1.0 2.0 70 70
r 0.194133 1 2 cbr 1000 ------- 1 1.0 2.0 61 61
+ 0.194667 1 2 cbr 1000 ------- 1 1.0 2.0 71 71
- 0.194667 1 2 cbr 1000 ------- 1 1.0 2.0 71 71
r 0.195467 1 2 cbr 1000 ------- 1 1.0 2.0 62 62
+ 0.196 1 2 cbr 1000 ------- 1 1.0 2.0 72 72
- 0.196 1 2 cbr 1000 ------- 1 1.0 2.0 72 72
r 0.1968 1 2 cbr 1000 ------- 1 1.0 2.0 63 63
+ 0.197333 1 2 cbr 1000 ------- 1 1.0 2.0 73 73
- 0.197333 1 2 cbr 1000 ------- 1 1.0 2.0 73 73
r 0.198133 1 2 cbr 1000 ------- 1 1.0 2.0 64 64
+ 0.198667 1 2 cbr 1000 ------- 1 1.0 2.0 74 74
- 0.198667 1 2 cbr 1000 ------- 1 1.0 2.0 74 74
r 0.199467 1 2 cbr 1000 ------- 1 1.0 2.0 65 65
+ 0.2 1 2 cbr 1000 ------- 1 1.0 2.0 75 75
- 0.2 1 2 cbr 1000 ------- 1 1.0 2.0 75 75
r 0.2008 1 2 cbr 1000 ------- 1 1.0 2.0 66 66
+ 0.201333 1 2 cbr 1000 ------- 1 1.0 2.0 76 76
- 0.201333 1 2 cbr 1000 ------- 1 1.0 2.0 76 76
r 0.202133 1 2 cbr 1000 ------- 1 1.0 2.0 67 67
+ 0.202667 1 2 cbr 1000 ------- 1 1.0 2.0 77 77
- 0.202667 1 2 cbr 1000 ------- 1 1.0 2.0 77 77
r 0.203467 1 2 cbr 1000 ------- 1 1.0 2.0 68 68
+ 0.204 1 2 cbr 1000 ------- 1 1.0 2.0 78 78
- 0.204 1 2 cbr 1000 ------- 1 1.0 2.0 78 78
r 0.2048 1 2 cbr 1000 ------- 1 1.0 2.0 69 69
+ 0.205333 1 2 cbr 1000 ------- 1 1.0 2.0 79 79
- 0.205333 1 2 cbr 1000 ------- 1 1.0 2.0 79 79
r 0.206133 1 2 cbr 1000 ------- 1 1.0 2.0 70 70
+ 0.206667 1 2 cbr 1000 ------- 1 1.0 2.0 80 80
- 0.206667 1 2 cbr 1000 ------- 1 1.0 2.0 80 80
r 0.207467 1 2 cbr 1000 ------- 1 1.0 2.0 71 71
+ 0.208 1 2 cbr 1000 ------- 1 1.0 2.0 81 81
- 0.208 1 2 cbr 1000 ------- 1 1.0 2.0 81 81
r 0.2088 1 2 cbr 1000 ------- 1 1.0 2.0 72 72
+ 0.209333 1 2 cbr 1000 ------- 1 1.0 2.0 82 82
- 0.209333 1 2 cbr 1000 ------- 1 1.0 2.0 82 82
r 0.210133 1 2 cbr 1000 ------- 1 1.0 2.0 73 73
+ 0.210667 1 2 cbr 1000 ------- 1 1.0 2.0 83 83
- 0.210667 1 2 cbr 1000 ------- 1 1.0 2.0 83 83
r 0.211467 1 2 cbr 1000 ------- 1 1.0 2.0 74 74
+ 0.212 1 2 cbr 1000 ------- 1 1.0 2.0 84 84
- 0.212 1 2 cbr 1000 ------- 1 1.0 2.0 84 84
r 0.2128 1 2 cbr 1000 ------- 1 1.0 2.0 75 75
+ 0.213333 1 2 cbr 1000 ------- 1 1.0 2.0 85 85
- 0.213333 1 2 cbr 1000 ------- 1 1.0 2.0 85 85
r 0.214133 1 2 cbr 1000 ------- 1 1.0 2.0 76 76
+ 0.214667 1 2 cbr 1000 ------- 1 1.0 2.0 86 86
- 0.214667 1 2 cbr 1000 ------- 1 1.0 2.0 86 86
r 0.215467 1 2 cbr 1000 ------- 1 1.0 2.0 77 77
+ 0.216 1 2 cbr 1000 ------- 1 1.0 2.0 87 87
- 0.216 1 2 cbr 1000 ------- 1 1.0 2.0 87 87
r 0.2168 1 2 cbr 1000 ------- 1 1.0 2.0 78 78
+ 0.217333 1 2 cbr 1000 ------- 1 1.0 2.0 88 88
- 0.217333 1 2 cbr 1000 ------- 1 1.0 2.0 88 88
r 0.218133 1 2 cbr 1000 ------- 1 1.0 2.0 79 79
+ 0.218667 1 2 cbr 1000 ------- 1 1.0 2.0 89 89
- 0.218667 1 2 cbr 1000 ------- 1 1.0 2.0 89 89
r 0.219467 1 2 cbr 1000 ------- 1 1.0 2.0 80 80
+ 0.22 1 2 cbr 1000 ------- 1 1.0 2.0 90 90
- 0.22 1 2 cbr 1000 ------- 1 1.0 2.0 90 90
r 0.2208 1 2 cbr 1000 ------- 1 1.0 2.0 81 81
+ 0.221333 1 2 cbr 1000 ------- 1 1.0 2.0 91 91
- 0.221333 1 2 cbr 1000 ------- 1 1.0 2.0 91 91
r 0.222133 1 2 cbr 1000 ------- 1 1.0 2.0 82 82
+ 0.222667 1 2 cbr 1000 ------- 1 1.0 2.0 92 92
- 0.222667 1 2 cbr 1000 ------- 1 1.0 2.0 92 92
r 0.223467 1 2 cbr 1000 ------- 1 1.0 2.0 83 83
+ 0.224 1 2 cbr 1000 ------- 1 1.0 2.0 93 93
- 0.224 1 2 cbr 1000 ------- 1 1.0 2.0 93 93
r 0.2248 1 2 cbr 1000 ------- 1 1.0 2.0 84 84
+ 0.225333 1 2 cbr 1000 ------- 1 1.0 2.0 94 94
- 0.225333 1 2 cbr 1000 ------- 1 1.0 2.0 94 94
r 0.226133 1 2 cbr 1000 ------- 1 1.0 2.0 85 85
+ 0.226667 1 2 cbr 1000 ------- 1 1.0 2.0 95 95
- 0.226667 1 2 cbr 1000 ------- 1 1.0 2.0 95 95
r 0.227467 1 2 cbr 1000 ------- 1 1.0 2.0 86 86
+ 0.228 1 2 cbr 1000 ------- 1 1.0 2.0 96 96
- 0.228 1 2 cbr 1000 ------- 1 1.0 2.0 96 96
r 0.2288 1 2 cbr 1000 ------- 1 1.0 2.0 87 87
+ 0.229333 1 2 cbr 1000 ------- 1 1.0 2.0 97 97
- 0.229333 1 2 cbr 1000 ------- 1 1.0 2.0 97 97
r 0.230133 1 2 cbr 1000 ------- 1 1.0 2.0 88 88
+ 0.230667 1 2 cbr 1000 ------- 1 1.0 2.0 98 98
- 0.230667 1 2 cbr 1000 ------- 1 1.0 2.0 98 98
r 0.231467 1 2 cbr 1000 ------- 1 1.0 2.0 89 89
+ 0.232 1 2 cbr 1000 ------- 1 1.0 2.0 99 99
- 0.232 1 2 cbr 1000 ------- 1 1.0 2.0 99 99
r 0.2328 1 2 cbr 1000 ------- 1 1.0 2.0 90 90
+ 0.233333 1 2 cbr 1000 ------- 1 1.0 2.0 100 100
- 0.233333 1 2 cbr 1000 ------- 1 1.0 2.0 100 100
r 0.234133 1 2 cbr 1000 ------- 1 1.0 2.0 91 91
+ 0.234667 1 2 cbr 1000 ------- 1 1.0 2.0 101 101
- 0.234667 1 2 cbr 1000 ------- 1 1.0 2.0 101 101
r 0.235467 1 2 cbr 1000 ------- 1 1.0 2.0 92 92
+ 0.236 1 2 cbr 1000 ------- 1 1.0 2.0 102 102
- 0.236 1 2 cbr 1000 ------- 1 1.0 2.0 102 102
r 0.2368 1 2 cbr 1000 ------- 1 1.0 2.0 93 93
+ 0.237333 1 2 cbr 1000 ------- 1 1.0 2.0 103 103
- 0.237333 1 2 cbr 1000 ------- 1 1.0 2.0 103 103
r 0.238133 1 2 cbr 1000 ------- 1 1.0 2.0 94 94
+ 0.238667 1 2 cbr 1000 ------- 1 1.0 2.0 104 104
- 0.238667 1 2 cbr 1000 ------- 1 1.0 2.0 104 104
r 0.239467 1 2 cbr 1000 ------- 1 1.0 2.0 95 95
+ 0.24 1 2 cbr 1000 ------- 1 1.0 2.0 105 105
- 0.24 1 2 cbr 1000 ------- 1 1.0 2.0 105 105
r 0.2408 1 2 cbr 1000 ------- 1 1.0 2.0 96 96
+ 0.241333 1 2 cbr 1000 ------- 1 1.0 2.0 106 106
- 0.241333 1 2 cbr 1000 ------- 1 1.0 2.0 106 106
r 0.242133 1 2 cbr 1000 ------- 1 1.0 2.0 97 97
+ 0.242667 1 2 cbr 1000 ------- 1 1.0 2.0 107 107
- 0.242667 1 2 cbr 1000 ------- 1 1.0 2.0 107 107
r 0.243467 1 2 cbr 1000 ------- 1 1.0 2.0 98 98
+ 0.244 1 2 cbr 1000 ------- 1 1.0 2.0 108 108
- 0.244 1 2 cbr 1000 ------- 1 1.0 2.0 108 108
r 0.2448 1 2 cbr 1000 ------- 1 1.0 2.0 99 99
+ 0.245333 1 2 cbr 1000 ------- 1 1.0 2.0 109 109
- 0.245333 1 2 cbr 1000 ------- 1 1.0 2.0 109 109
r 0.246133 1 2 cbr 1000 ------- 1 1.0 2.0 100 100
+ 0.246667 1 2 cbr 1000 ------- 1 1.0 2.0 110 110
- 0.246667 1 2 cbr 1000 ------- 1 1.0 2.0 110 110
r 0.247467 1 2 cbr 1000 ------- 1 1.0 2.0 101 101
+ 0.248 1 2 cbr 1000 ------- 1 1.0 2.0 111 111
- 0.248 1 2 cbr 1000 ------- 1 1.0 2.0 111 111
r 0.2488 1 2 cbr 1000 ------- 1 1.0 2.0 102 102
+ 0.249333 1 2 cbr 1000 ------- 1 1.0 2.0 112 112
- 0.249333 1 2 cbr 1000 ------- 1 1.0 2.0 112 112
r 0.250133 1 2 cbr 1000 ------- 1 1.0 2.0 103 103
+ 0.250667 1 2 cbr 1000 ------- 1 1.0 2.0 113 113
- 0.250667 1 2 cbr 1000 ------- 1 1.0 2.0 113 113
r 0.251467 1 2 cbr 1000 ------- 1 1.0 2.0 104 104
+ 0.252 1 2 cbr 1000 ------- 1 1.0 2.0 114 114
- 0.252 1 2 cbr 1000 ------- 1 1.0 2.0 114 114
r 0.2528 1 2 cbr 1000 ------- 1 1.0 2.0 105 105
+ 0.253333 1 2 cbr 1000 ------- 1 1.0 2.0 115 115
- 0.253333 1 2 cbr 1000 ------- 1 1.0 2.0 115 115
r 0.254133 1 2 cbr 1000 ------- 1 1.0 2.0 106 106
+ 0.254667 1 2 cbr 1000 ------- 1 1.0 2.0 116 116
- 0.254667 1 2 cbr 1000 ------- 1 1.0 2.0 116 116
r 0.255467 1 2 cbr 1000 ------- 1 1.0 2.0 107 107
+ 0.256 1 2 cbr 1000 ------- 1 1.0 2.0 117 117
- 0.256 1 2 cbr 1000 ------- 1 1.0 2.0 117 117
r 0.2568 1 2 cbr 1000 ------- 1 1.0 2.0 108 108
+ 0.257333 1 2 cbr 1000 ------- 1 1.0 2.0 118 118
- 0.257333 1 2 cbr 1000 ------- 1 1.0 2.0 118 118
r 0.258133 1 2 cbr 1000 ------- 1 1.0 2.0 109 109
+ 0.258667 1 2 cbr 1000 ------- 1 1.0 2.0 119 119
- 0.258667 1 2 cbr 1000 ------- 1 1.0 2.0 119 119
r 0.259467 1 2 cbr 1000 ------- 1 1.0 2.0 110 110
+ 0.26 1 2 cbr 1000 ------- 1 1.0 2.0 120 120
- 0.26 1 2 cbr 1000 ------- 1 1.0 2.0 120 120
r 0.2608 1 2 cbr 1000 ------- 1 1.0 2.0 111 111
+ 0.261333 1 2 cbr 1000 ------- 1 1.0 2.0 121 121
- 0.261333 1 2 cbr 1000 ------- 1 1.0 2.0 121 121
r 0.262133 1 2 cbr 1000 ------- 1 1.0 2.0 112 112
+ 0.262667 1 2 cbr 1000 ------- 1 1.0 2.0 122 122
- 0.262667 1 2 cbr 1000 ------- 1 1.0 2.0 122 122
r 0.263467 1 2 cbr 1000 ------- 1 1.0 2.0 113 113
+ 0.264 1 2 cbr 1000 ------- 1 1.0 2.0 123 123
- 0.264 1 2 cbr 1000 ------- 1 1.0 2.0 123 123
r 0.2648 1 2 cbr 1000 ------- 1 1.0 2.0 114 114
+ 0.265333 1 2 cbr 1000 ------- 1 1.0 2.0 124 124
- 0.265333 1 2 cbr 1000 ------- 1 1.0 2.0 124 124
r 0.266133 1 2 cbr 1000 ------- 1 1.0 2.0 115 115
+ 0.266667 1 2 cbr 1000 ------- 1 1.0 2.0 125 125
- 0.266667 1 2 cbr 1000 ------- 1 1.0 2.0 125 125
r 0.267467 1 2 cbr 1000 ------- 1 1.0 2.0 116 116
+ 0.268 1 2 cbr 1000 ------- 1 1.0 2.0 126 126
- 0.268 1 2 cbr 1000 ------- 1 1.0 2.0 126 126
r 0.2688 1 2 cbr 1000 ------- 1 1.0 2.0 117 117
+ 0.269333 1 2 cbr 1000 ------- 1 1.0 2.0 127 127
- 0.269333 1 2 cbr 1000 ------- 1 1.0 2.0 127 127
r 0.270133 1 2 cbr 1000 ------- 1 1.0 2.0 118 118
+ 0.270667 1 2 cbr 1000 ------- 1 1.0 2.0 128 128
- 0.270667 1 2 cbr 1000 ------- 1 1.0 2.0 128 128
r 0.271467 1 2 cbr 1000 ------- 1 1.0 2.0 119 119
+ 0.272 1 2 cbr 1000 ------- 1 1.0 2.0 129 129
- 0.272 1 2 cbr 1000 ------- 1 1.0 2.0 129 129
r 0.2728 1 2 cbr 1000 ------- 1 1.0 2.0 120 120
+ 0.273333 1 2 cbr 1000 ------- 1 1.0 2.0 130 130
- 0.273333 1 2 cbr 1000 ------- 1 1.0 2.0 130 130
r 0.274133 1 2 cbr 1000 ------- 1 1.0 2.0 121 121
+ 0.274667 1 2 cbr 1000 ------- 1 1.0 2.0 131 131
- 0.274667 1 2 cbr 1000 ------- 1 1.0 2.0 131 131
r 0.275467 1 2 cbr 1000 ------- 1 1.0 2.0 122 122
+ 0.276 1 2 cbr 1000 ------- 1 1.0 2.0 132 132
- 0.276 1 2 cbr 1000 ------- 1 1.0 2.0 132 132
r 0.2768 1 2 cbr 1000 ------- 1 1.0 2.0 123 123
+ 0.277333 1 2 cbr 1000 ------- 1 1.0 2.0 133 133
- 0.277333 1 2 cbr 1000 ------- 1 1.0 2.0 133 133
r 0.278133 1 2 cbr 1000 ------- 1 1.0 2.0 124 124
+ 0.278667 1 2 cbr 1000 ------- 1 1.0 2.0 134 134
- 0.278667 1 2 cbr 1000 ------- 1 1.0 2.0 134 134
r 0.279467 1 2 cbr 1000 ------- 1 1.0 2.0 125 125
+ 0.28 1 2 cbr 1000 ------- 1 1.0 2.0 135 135
- 0.28 1 2 cbr 1000 ------- 1 1.0 2.0 135 135
r 0.2808 1 2 cbr 1000 ------- 1 1.0 2.0 126 126
+ 0.281333 1 2 cbr 1000 ------- 1 1.0 2.0 136 136
- 0.281333 1 2 cbr 1000 ------- 1 1.0 2.0 136 136
r 0.282133 1 2 cbr 1000 ------- 1 1.0 2.0 127 127
+ 0.282667 1 2 cbr 1000 ------- 1 1.0 2.0 137 137
- 0.282667 1 2 cbr 1000 ------- 1 1.0 2.0 137 137
r 0.283467 1 2 cbr 1000 ------- 1 1.0 2.0 128 128
+ 0.284 1 2 cbr 1000 ------- 1 1.0 2.0 138 138
- 0.284 1 2 cbr 1000 ------- 1 1.0 2.0 138 138
r 0.2848 1 2 cbr 1000 ------- 1 1.0 2.0 129 129
+ 0.285333 1 2 cbr 1000 ------- 1 1.0 2.0 139 139
- 0.285333 1 2 cbr 1000 ------- 1 1.0 2.0 139 139
r 0.286133 1 2 cbr 1000 ------- 1 1.0 2.0 130 130
+ 0.286667 1 2 cbr 1000 ------- 1 1.0 2.0 140 140
- 0.286667 1 2 cbr 1000 ------- 1 1.0 2.0 140 140
r 0.287467 1 2 cbr 1000 ------- 1 1.0 2.0 131 131
+ 0.288 1 2 cbr 1000 ------- 1 1.0 2.0 141 141
- 0.288 1 2 cbr 1000 ------- 1 1.0 2.0 141 141
r 0.2888 1 2 cbr 1000 ------- 1 1.0 2.0 132 132
+ 0.289333 1 2 cbr 1000 ------- 1 1.0 2.0 142 142
- 0.289333 1 2 cbr 1000 ------- 1 1.0 2.0 142 142
r 0.290133 1 2 cbr 1000 ------- 1 1.0 2.0 133 133
+ 0.290667 1 2 cbr 1000 ------- 1 1.0 2.0 143 143
- 0.290667 1 2 cbr 1000 ------- 1 1.0 2.0 143 143
r 0.291467 1 2 cbr 1000 ------- 1 1.0 2.0 134 134
+ 0.292 1 2 cbr 1000 ------- 1 1.0 2.0 144 144
- 0.292 1 2 cbr 1000 ------- 1 1.0 2.0 144 144
r 0.2928 1 2 cbr 1000 ------- 1 1.0 2.0 135 135
+ 0.293333 1 2 cbr 1000 ------- 1 1.0 2.0 145 145
- 0.293333 1 2 cbr 1000 ------- 1 1.0 2.0 145 145
r 0.294133 1 2 cbr 1000 ------- 1 1.0 2.0 136 136
+ 0.294667 1 2 cbr 1000 ------- 1 1.0 2.0 146 146
- 0.294667 1 2 cbr 1000 ------- 1 1.0 2.0 146 146
r 0.295467 1 2 cbr 1000 ------- 1 1.0 2.0 137 137
+ 0.296 1 2 cbr 1000 ------- 1 1.0 2.0 147 147
- 0.296 1 2 cbr 1000 ------- 1 1.0 2.0 147 147
r 0.2968 1 2 cbr 1000 ------- 1 1.0 2.0 138 138
+ 0.297333 1 2 cbr 1000 ------- 1 1.0 2.0 148 148
- 0.297333 1 2 cbr 1000 ------- 1 1.0 2.0 148 148
r 0.298133 1 2 cbr 1000 ------- 1 1.0 2.0 139 139
+ 0.298667 1 2 cbr 1000 ------- 1 1.0 2.0 149 149
- 0.298667 1 2 cbr 1000 ------- 1 1.0 2.0 149 149
r 0.299467 1 2 cbr 1000 ------- 1 1.0 2.0 140 140
+ 0.3 1 2 cbr 1000 ------- 1 1.0 2.0 150 150
- 0.3 1 2 cbr 1000 ------- 1 1.0 2.0 150 150
r 0.3008 1 2 cbr 1000 ------- 1 1.0 2.0 141 141
+ 0.301333 1 2 cbr 1000 ------- 1 1.0 2.0 151 151
- 0.301333 1 2 cbr 1000 ------- 1 1.0 2.0 151 151
r 0.302133 1 2 cbr 1000 ------- 1 1.0 2.0 142 142
+ 0.302667 1 2 cbr 1000 ------- 1 1.0 2.0 152 152
- 0.302667 1 2 cbr 1000 ------- 1 1.0 2.0 152 152
r 0.303467 1 2 cbr 1000 ------- 1 1.0 2.0 143 143
+ 0.304 1 2 cbr 1000 ------- 1 1.0 2.0 153 153
- 0.304 1 2 cbr 1000 ------- 1 1.0 2.0 153 153
r 0.3048 1 2 cbr 1000 ------- 1 1.0 2.0 144 144
+ 0.305333 1 2 cbr 1000 ------- 1 1.0 2.0 154 154
- 0.305333 1 2 cbr 1000 ------- 1 1.0 2.0 154 154
r 0.306133 1 2 cbr 1000 ------- 1 1.0 2.0 145 145
+ 0.306667 1 2 cbr 1000 ------- 1 1.0 2.0 155 155
- 0.306667 1 2 cbr 1000 ------- 1 1.0 2.0 155 155
r 0.307467 1 2 cbr 1000 ------- 1 1.0 2.0 146 146
+ 0.308 1 2 cbr 1000 ------- 1 1.0 2.0 156 156
- 0.308 1 2 cbr 1000 ------- 1 1.0 2.0 156 156
r 0.3088 1 2 cbr 1000 ------- 1 1.0 2.0 147 147
+ 0.309333 1 2 cbr 1000 ------- 1 1.0 2.0 157 157
- 0.309333 1 2 cbr 1000 ------- 1 1.0 2.0 157 157
r 0.310133 1 2 cbr 1000 ------- 1 1.0 2.0 148 148
+ 0.310667 1 2 cbr 1000 ------- 1 1.0 2.0 158 158
- 0.310667 1 2 cbr 1000 ------- 1 1.0 2.0 158 158
r 0.311467 1 2 cbr 1000 ------- 1 1.0 2.0 149 149
+ 0.312 1 2 cbr 1000 ------- 1 1.0 2.0 159 159
- 0.312 1 2 cbr 1000 ------- 1 1.0 2.0 159 159
r 0.3128 1 2 cbr 1000 ------- 1 1.0 2.0 150 150
+ 0.313333 1 2 cbr 1000 ------- 1 1.0 2.0 160 160
- 0.313333 1 2 cbr 1000 ------- 1 1.0 2.0 160 160
r 0.314133 1 2 cbr 1000 ------- 1 1.0 2.0 151 151
+ 0.314667 1 2 cbr 1000 ------- 1 1.0 2.0 161 161
- 0.314667 1 2 cbr 1000 ------- 1 1.0 2.0 161 161
r 0.315467 1 2 cbr 1000 ------- 1 1.0 2.0 152 152
+ 0.316 1 2 cbr 1000 ------- 1 1.0 2.0 162 162
- 0.316 1 2 cbr 1000 ------- 1 1.0 2.0 162 162
r 0.3168 1 2 cbr 1000 ------- 1 1.0 2.0 153 153
+ 0.317333 1 2 cbr 1000 ------- 1 1.0 2.0 163 163
- 0.317333 1 2 cbr 1000 ------- 1 1.0 2.0 163 163
r 0.318133 1 2 cbr 1000 ------- 1 1.0 2.0 154 154
+ 0.318667 1 2 cbr 1000 ------- 1 1.0 2.0 164 164
- 0.318667 1 2 cbr 1000 ------- 1 1.0 2.0 164 164
r 0.319467 1 2 cbr 1000 ------- 1 1.0 2.0 155 155
+ 0.32 1 2 cbr 1000 ------- 1 1.0 2.0 165 165
- 0.32 1 2 cbr 1000 ------- 1 1.0 2.0 165 165
r 0.3208 1 2 cbr 1000 ------- 1 1.0 2.0 156 156
+ 0.321333 1 2 cbr 1000 ------- 1 1.0 2.0 166 166
- 0.321333 1 2 cbr 1000 ------- 1 1.0 2.0 166 166
r 0.322133 1 2 cbr 1000 ------- 1 1.0 2.0 157 157
+ 0.322667 1 2 cbr 1000 ------- 1 1.0 2.0 167 167
- 0.322667 1 2 cbr 1000 ------- 1 1.0 2.0 167 167
r 0.323467 1 2 cbr 1000 ------- 1 1.0 2.0 158 158
+ 0.324 1 2 cbr 1000 ------- 1 1.0 2.0 168 168
- 0.324 1 2 cbr 1000 ------- 1 1.0 2.0 168 168
r 0.3248 1 2 cbr 1000 ------- 1 1.0 2.0 159 159
+ 0.325333 1 2 cbr 1000 ------- 1 1.0 2.0 169 169
- 0.325333 1 2 cbr 1000 ------- 1 1.0 2.0 169 169
r 0.326133 1 2 cbr 1000 ------- 1 1.0 2.0 160 160
+ 0.326667 1 2 cbr 1000 ------- 1 1.0 2.0 170 170
- 0.326667 1 2 cbr 1000 ------- 1 1.0 2.0 170 170
r 0.327467 1 2 cbr 1000 ------- 1 1.0 2.0 161 161
+ 0.328 1 2 cbr 1000 ------- 1 1.0 2.0 171 171
- 0.328 1 2 cbr 1000 ------- 1 1.0 2.0 171 171
r 0.3288 1 2 cbr 1000 ------- 1 1.0 2.0 162 162
+ 0.329333 1 2 cbr 1000 ------- 1 1.0 2.0 172 172
- 0.329333 1 2 cbr 1000 ------- 1 1.0 2.0 172 172
r 0.330133 1 2 cbr 1000 ------- 1 1.0 2.0 163 163
+ 0.330667 1 2 cbr 1000 ------- 1 1.0 2.0 173 173
- 0.330667 1 2 cbr 1000 ------- 1 1.0 2.0 173 173
r 0.331467 1 2 cbr 1000 ------- 1 1.0 2.0 164 164
+ 0.332 1 2 cbr 1000 ------- 1 1.0 2.0 174 174
- 0.332 1 2 cbr 1000 ------- 1 1.0 2.0 174 174
r 0.3328 1 2 cbr 1000 ------- 1 1.0 2.0 165 165
+ 0.333333 1 2 cbr 1000 ------- 1 1.0 2.0 175 175
- 0.333333 1 2 cbr 1000 ------- 1 1.0 2.0 175 175
r 0.334133 1 2 cbr 1000 ------- 1 1.0 2.0 166 166
+ 0.334667 1 2 cbr 1000 ------- 1 1.0 2.0 176 176
- 0.334667 1 2 cbr 1000 ------- 1 1.0 2.0 176 176
r 0.335467 1 2 cbr 1000 ------- 1 1.0 2.0 167 167
+ 0.336 1 2 cbr 1000 ------- 1 1.0 2.0 177 177
- 0.336 1 2 cbr 1000 ------- 1 1.0 2.0 177 177
r 0.3368 1 2 cbr 1000 ------- 1 1.0 2.0 168 168
+ 0.337333 1 2 cbr 1000 ------- 1 1.0 2.0 178 178
- 0.337333 1 2 cbr 1000 ------- 1 1.0 2.0 178 178
r 0.338133 1 2 cbr 1000 ------- 1 1.0 2.0 169 169
+ 0.338667 1 2 cbr 1000 ------- 1 1.0 2.0 179 179
- 0.338667 1 2 cbr 1000 ------- 1 1.0 2.0 179 179
r 0.339467 1 2 cbr 1000 ------- 1 1.0 2.0 170 170
+ 0.34 1 2 cbr 1000 ------- 1 1.0 2.0 180 180
- 0.34 1 2 cbr 1000 ------- 1 1.0 2.0 180 180
r 0.3408 1 2 cbr 1000 ------- 1 1.0 2.0 171 171
+ 0.341333 1 2 cbr 1000 ------- 1 1.0 2.0 181 181
- 0.341333 1 2 cbr 1000 ------- 1 1.0 2.0 181 181
r 0.342133 1 2 cbr 1000 ------- 1 1.0 2.0 172 172
+ 0.342667 1 2 cbr 1000 ------- 1 1.0 2.0 182 182
- 0.342667 1 2 cbr 1000 ------- 1 1.0 2.0 182 182
r 0.343467 1 2 cbr 1000 ------- 1 1.0 2.0 173 173
+ 0.344 1 2 cbr 1000 ------- 1 1.0 2.0 183 183
- 0.344 1 2 cbr 1000 ------- 1 1.0 2.0 183 183
r 0.3448 1 2 cbr 1000 ------- 1 1.0 2.0 174 174
+ 0.345333 1 2 cbr 1000 ------- 1 1.0 2.0 184 184
- 0.345333 1 2 cbr 1000 ------- 1 1.0 2.0 184 184
r 0.346133 1 2 cbr 1000 ------- 1 1.0 2.0 175 175
+ 0.346667 1 2 cbr 1000 ------- 1 1.0 2.0 185 185
- 0.346667 1 2 cbr 1000 ------- 1 1.0 2.0 185 185
r 0.347467 1 2 cbr 1000 ------- 1 1.0 2.0 176 176
+ 0.348 1 2 cbr 1000 ------- 1 1.0 2.0 186 186
- 0.348 1 2 cbr 1000 ------- 1 1.0 2.0 186 186
r 0.3488 1 2 cbr 1000 ------- 1 1.0 2.0 177 177
+ 0.349333 1 2 cbr 1000 ------- 1 1.0 2.0 187 187
- 0.349333 1 2 cbr 1000 ------- 1 1.0 2.0 187 187
r 0.350133 1 2 cbr 1000 ------- 1 1.0 2.0 178 178
+ 0.350667 1 2 cbr 1000 ------- 1 1.0 2.0 188 188
- 0.350667 1 2 cbr 1000 ------- 1 1.0 2.0 188 188
r 0.351467 1 2 cbr 1000 ------- 1 1.0 2.0 179 179
+ 0.352 1 2 cbr 1000 ------- 1 1.0 2.0 189 189
- 0.352 1 2 cbr 1000 ------- 1 1.0 2.0 189 189
r 0.3528 1 2 cbr 1000 ------- 1 1.0 2.0 180 180
+ 0.353333 1 2 cbr 1000 ------- 1 1.0 2.0 190 190
- 0.353333 1 2 cbr 1000 ------- 1 1.0 2.0 190 190
r 0.354133 1 2 cbr 1000 ------- 1 1.0 2.0 181 181
+ 0.354667 1 2 cbr 1000 ------- 1 1.0 2.0 191 191
- 0.354667 1 2 cbr 1000 ------- 1 1.0 2.0 191 191
r 0.355467 1 2 cbr 1000 ------- 1 1.0 2.0 182 182
+ 0.356 1 2 cbr 1000 ------- 1 1.0 2.0 192 192
- 0.356 1 2 cbr 1000 ------- 1 1.0 2.0 192 192
r 0.3568 1 2 cbr 1000 ------- 1 1.0 2.0 183 183
+ 0.357333 1 2 cbr 1000 ------- 1 1.0 2.0 193 193
- 0.357333 1 2 cbr 1000 ------- 1 1.0 2.0 193 193
r 0.358133 1 2 cbr 1000 ------- 1 1.0 2.0 184 184
+ 0.358667 1 2 cbr 1000 ------- 1 1.0 2.0 194 194
- 0.358667 1 2 cbr 1000 ------- 1 1.0 2.0 194 194
r 0.359467 1 2 cbr 1000 ------- 1 1.0 2.0 185 185
+ 0.36 1 2 cbr 1000 ------- 1 1.0 2.0 195 195
- 0.36 1 2 cbr 1000 ------- 1 1.0 2.0 195 195
r 0.3608 1 2 cbr 1000 ------- 1 1.0 2.0 186 186
+ 0.361333 1 2 cbr 1000 ------- 1 1.0 2.0 196 196
- 0.361333 1 2 cbr 1000 ------- 1 1.0 2.0 196 196
r 0.362133 1 2 cbr 1000 ------- 1 1.0 2.0 187 187
+ 0.362667 1 2 cbr 1000 ------- 1 1.0 2.0 197 197
- 0.362667 1 2 cbr 1000 ------- 1 1.0 2.0 197 197
r 0.363467 1 2 cbr 1000 ------- 1 1.0 2.0 188 188
+ 0.364 1 2 cbr 1000 ------- 1 1.0 2.0 198 198
- 0.364 1 2 cbr 1000 ------- 1 1.0 2.0 198 198
r 0.3648 1 2 cbr 1000 ------- 1 1.0 2.0 189 189
+ 0.365333 1 2 cbr 1000 ------- 1 1.0 2.0 199 199
- 0.365333 1 2 cbr 1000 ------- 1 1.0 2.0 199 199
r 0.366133 1 2 cbr 1000 ------- 1 1.0 2.0 190 190
+ 0.366667 1 2 cbr 1000 ------- 1 1.0 2.0 200 200
- 0.366667 1 2 cbr 1000 ------- 1 1.0 2.0 200 200
r 0.367467 1 2 cbr 1000 ------- 1 1.0 2.0 191 191
+ 0.368 1 2 cbr 1000 ------- 1 1.0 2.0 201 201
- 0.368 1 2 cbr 1000 ------- 1 1.0 2.0 201 201
r 0.3688 1 2 cbr 1000 ------- 1 1.0 2.0 192 192
+ 0.369333 1 2 cbr 1000 ------- 1 1.0 2.0 202 202
- 0.369333 1 2 cbr 1000 ------- 1 1.0 2.0 202 202
r 0.370133 1 2 cbr 1000 ------- 1 1.0 2.0 193 193
+ 0.370667 1 2 cbr 1000 ------- 1 1.0 2.0 203 203
- 0.370667 1 2 cbr 1000 ------- 1 1.0 2.0 203 203
r 0.371467 1 2 cbr 1000 ------- 1 1.0 2.0 194 194
+ 0.372 1 2 cbr 1000 ------- 1 1.0 2.0 204 204
- 0.372 1 2 cbr 1000 ------- 1 1.0 2.0 204 204
r 0.3728 1 2 cbr 1000 ------- 1 1.0 2.0 195 195
+ 0.373333 1 2 cbr 1000 ------- 1 1.0 2.0 205 205
- 0.373333 1 2 cbr 1000 ------- 1 1.0 2.0 205 205
r 0.374133 1 2 cbr 1000 ------- 1 1.0 2.0 196 196
+ 0.374667 1 2 cbr 1000 ------- 1 1.0 2.0 206 206
- 0.374667 1 2 cbr 1000 ------- 1 1.0 2.0 206 206
r 0.375467 1 2 cbr 1000 ------- 1 1.0 2.0 197 197
+ 0.376 1 2 cbr 1000 ------- 1 1.0 2.0 207 207
- 0.376 1 2 cbr 1000 ------- 1 1.0 2.0 207 207
r 0.3768 1 2 cbr 1000 ------- 1 1.0 2.0 198 198
+ 0.377333 1 2 cbr 1000 ------- 1 1.0 2.0 208 208
- 0.377333 1 2 cbr 1000 ------- 1 1.0 2.0 208 208
r 0.378133 1 2 cbr 1000 ------- 1 1.0 2.0 199 199
+ 0.378667 1 2 cbr 1000 ------- 1 1.0 2.0 209 209
- 0.378667 1 2 cbr 1000 ------- 1 1.0 2.0 209 209
r 0.379467 1 2 cbr 1000 ------- 1 1.0 2.0 200 200
+ 0.38 1 2 cbr 1000 ------- 1 1.0 2.0 210 210
- 0.38 1 2 cbr 1000 ------- 1 1.0 2.0 210 210
r 0.3808 1 2 cbr 1000 ------- 1 1.0 2.0 201 201
+ 0.381333 1 2 cbr 1000 ------- 1 1.0 2.0 211 211